28
Lattice="8.493 0.0 0.0 4.2465 6.005457892617349 0.0 0.0 0.0 20.003638595078232" Properties=species:S:1:pos:R:3:tags:I:1:forces:R:3 charge=0 spin=0 energy=-188.33364466300225 free_energy=-188.33364466300225 stress="0.043805450201034546 -0.0013510468415915966 -1.0571120867552963e-07 -0.0013510468415915966 0.031126732006669044 -3.6271771932661068e-06 -1.0571120867552963e-07 -3.6271771932661068e-06 0.008517724461853504" pbc="T T T"
Fe       0.00000000       0.00000000       8.00000000        3      -0.00171922       0.01068254       0.38173291
Fe       2.83100000       0.00000000       8.00000000        3       0.15240054      -0.00003286       0.50126916
Fe       5.66200000       0.00000000       8.00000000        3      -0.04867404      -0.05667209       0.51730114
Fe       1.41550000       2.00181930       8.00000000        3      -0.00004427       0.00001308       0.40754238
Fe       4.24650000       2.00181930       8.00000000        3       0.13147008       0.01166527       0.55204302
Fe       7.07750000       2.00181930       8.00000000        3      -0.13150845      -0.01149864       0.55204123
Fe       2.83100000       4.00363860       8.00000000        3       0.00162500      -0.01057218       0.38177732
Fe       5.66200000       4.00363860       8.00000000        3       0.04868727       0.05682017       0.51735049
Fe       8.49300000       4.00363860       8.00000000        3      -0.15232113       0.00017709       0.50136840
Fe       0.00000000       2.00181930      10.00181930        2      -0.47561833      -0.60271293      -0.87637961
Fe       2.83100000       2.00181930      10.00181930        2       0.47553146       0.60165793      -0.87695175
Fe       5.66200000       2.00181930      10.00181930        2       0.00016095       0.00002751      -0.14094023
Fe       1.41550000       4.00363860      10.00181930        2      -0.38598448      -0.71003526      -1.06573021
Fe       4.24650000       4.00363860      10.00181930        2       0.40808073       0.46946460      -0.68062651
Fe       7.07750000       4.00363860      10.00181930        2      -0.02074449      -0.04899007       0.55669624
Fe       2.83100000       6.00545789      10.00181930        2      -0.40817064      -0.47046837      -0.68010324
Fe       5.66200000       6.00545789      10.00181930        2       0.38586527       0.70896679      -1.06671047
Fe       8.49300000       6.00545789      10.00181930        2       0.02096939       0.04898635       0.55664146
Fe       0.09272888      -0.15598269      11.85095185        1      -0.00570693       0.03479353      -0.00842684
Fe       2.51385451      -0.37866886      11.87029308        1       0.00227409      -0.00898852      -0.01619554
Fe       5.98973093       0.35441428      11.92411648        1       0.00960035      -0.00945607       0.01999829
Fe       1.41547698       2.00221481      11.85159826        1      -0.00004441       0.00068526      -0.02948607
Fe       3.91865131       1.52473755      11.90923848        1       0.00033122       0.01959925      -0.00589850
Fe       7.40534031       2.47899568      11.90927335        1      -0.00029342      -0.01959163      -0.00582462
Fe       2.73831156       4.16014529      11.85096221        1       0.00579596      -0.03374393      -0.00842027
Fe       5.33422430       3.64943143      11.92411137        1      -0.00968016       0.00977931       0.01994916
Fe       8.81017349       4.38251297      11.87031938        1      -0.00223164       0.00925253      -0.01610610
O        5.66200663       2.00192649      12.80695020        0      -0.00005073       0.00019128       0.01208917
