29
Lattice="8.493 0.0 0.0 4.2465 6.005457892617349 0.0 0.0 0.0 20.003638595078232" Properties=species:S:1:pos:R:3:tags:I:1:forces:R:3 charge=0 spin=0 energy=-190.37644437952952 free_energy=-190.37644437952952 stress="0.047097962349653244 6.271845450100955e-06 5.6559601944172755e-05 6.271845450100955e-06 0.030592361465096474 -0.0003293172921985388 5.6559601944172755e-05 -0.0003293172921985388 0.012476186268031597" pbc="T T T"
Fe       0.00000000       0.00000000       8.00000000        3      -0.01049032       0.00119849       0.50599527
Fe       2.83100000       0.00000000       8.00000000        3       0.00134535       0.00276783       0.55191898
Fe       5.66200000       0.00000000       8.00000000        3      -0.00177568      -0.00059568       0.47444889
Fe       1.41550000       2.00181930       8.00000000        3      -0.06998651       0.01165706       0.61235434
Fe       4.24650000       2.00181930       8.00000000        3       0.06779904      -0.01048138       0.58485168
Fe       7.07750000       2.00181930       8.00000000        3       0.01848779      -0.01299641       0.51827973
Fe       2.83100000       4.00363860       8.00000000        3       0.01098444       0.01793751       0.63455540
Fe       5.66200000       4.00363860       8.00000000        3      -0.00575595       0.01185890       0.54986584
Fe       8.49300000       4.00363860       8.00000000        3      -0.00719213       0.01584874       0.55048090
Fe       0.00000000       2.00181930      10.00181930        2      -0.39714581       0.07498501      -0.28852785
Fe       2.83100000       2.00181930      10.00181930        2       0.01261923      -0.12404419      -0.72206527
Fe       5.66200000       2.00181930      10.00181930        2       0.39902642       0.04819993      -0.24884036
Fe       1.41550000       4.00363860      10.00181930        2      -0.23518090      -0.08004822      -0.11971230
Fe       4.24650000       4.00363860      10.00181930        2       0.23824182      -0.13407038      -0.07751796
Fe       7.07750000       4.00363860      10.00181930        2      -0.00709705       0.02995581      -0.65515035
Fe       2.83100000       6.00545789      10.00181930        2      -0.01271296      -0.00686286      -0.70664972
Fe       5.66200000       6.00545789      10.00181930        2      -0.05256270      -0.11222880      -0.71300888
Fe       8.49300000       6.00545789      10.00181930        2       0.06476238      -0.15009753      -0.71305692
Fe      -0.00009201      -0.02040491      11.84493833        1       0.08284979      -0.14158107      -0.04438308
Fe       2.82966214       0.08226720      11.83056966        1       0.00481490       0.40803623      -0.07524424
Fe       5.66432676      -0.01340381      11.84706439        1      -0.07819985      -0.09944350      -0.03376250
Fe       1.43479677       2.01774965      11.84002656        1      -0.05552066       0.21715330      -0.07380175
Fe       4.22381187       2.02084672      11.83958976        1       0.03857575       0.23741087      -0.06829038
Fe       7.08065483       1.90861980      11.98852900        1       0.00780359      -0.44694346       0.07557718
Fe       2.83102982       4.00797442      11.86829991        1      -0.00929416       0.06341217      -0.00619061
Fe       5.72971140       4.03785697      11.95298677        1       0.38660094       0.17455673       0.10336313
Fe       8.42779264       4.03026856      11.94758809        1      -0.37364197       0.17189683       0.09412166
O        7.07188264       3.33824957      13.34158475        0      -0.01285229      -0.09447142      -0.33691218
H        7.07782542       3.28148014      14.32132882        0      -0.00450244      -0.07301039      -0.37269872
