31
Lattice="8.493 0.0 0.0 4.2465 6.005457892617349 0.0 0.0 0.0 20.003638595078232" Properties=species:S:1:pos:R:3:tags:I:1:forces:R:3:charge:R:1 charge=0 spin=0 energy=-2369.7906636596836 free_energy=-2369.7906636596836 stress="0.025455262889599383 3.3172863954954365e-05 0.0013358737094622012 3.3172863954954365e-05 0.0013217257042086271 0.00014604749098893536 0.0013358737094622012 0.00014604749098893536 0.003981655427281378" dipole="-1.2019985836854634 0.13675126550147118 0.9512285331036524" pbc="T T T"
Fe       0.00000000       0.00000000       8.00000000        3       0.08027878      -0.04064906      -0.02988527      -0.00248789
Fe       2.83100000       0.00000000       8.00000000        3      -0.07980955      -0.06674396      -0.01471065      -0.00286435
Fe       5.66200000       0.00000000       8.00000000        3      -0.00959981       0.02264145      -0.11526914      -0.00299119
Fe       1.41550000       2.00181930       8.00000000        3       0.00412298       0.00604488       0.04182245      -0.00277673
Fe       4.24650000       2.00181930       8.00000000        3      -0.01087263      -0.00101977      -0.00394816      -0.00351705
Fe       7.07750000       2.00181930       8.00000000        3      -0.01399678       0.00136470       0.01735469      -0.00262838
Fe       2.83100000       4.00363860       8.00000000        3      -0.09652936       0.05637169      -0.01019640      -0.00283958
Fe       5.66200000       4.00363860       8.00000000        3      -0.01814567      -0.01304449      -0.11114300      -0.00306653
Fe       8.49300000       4.00363860       8.00000000        3       0.08750193       0.04910308      -0.02923422      -0.00241972
Fe       0.00000000       2.00181930      10.00181930        2      -0.75936623      -0.02749111      -0.12012757      -0.00138825
Fe       2.83100000       2.00181930      10.00181930        2       0.87158478      -0.01435850       0.04743959      -0.00044341
Fe       5.66200000       2.00181930      10.00181930        2      -0.01225080       0.02277442      -0.47565400       0.00450635
Fe       1.41550000       4.00363860      10.00181930        2      -0.01212874      -0.27579094       0.28906401       0.00035910
Fe       4.24650000       4.00363860      10.00181930        2       0.47394114       0.09334611      -0.85411399       0.00160684
Fe       7.07750000       4.00363860      10.00181930        2      -0.55870909       0.01062730      -0.95949081       0.00183387
Fe       2.83100000       6.00545789      10.00181930        2      -0.53290310      -0.01305552      -0.78852771       0.00162773
Fe       5.66200000       6.00545789      10.00181930        2      -0.04898504       0.24290072       0.30159006       0.00046368
Fe       8.49300000       6.00545789      10.00181930        2       0.51315801      -0.02522851      -0.86457380       0.00165521
Fe      -0.26518266       0.20945978      11.83722203        1       0.64656022      -0.13466058       0.52602225       0.01664285
Fe       3.10512793       0.18549752      11.83541618        1      -0.38892389       0.19600292       0.52509005       0.01504840
Fe       5.66127124      -0.56860039      11.83522456        1       0.10550578       0.05489551       0.07085024       0.01997674
Fe       1.41585411       2.01518229      11.75852330        1       0.00753961       0.00132473       2.07091175       0.02627272
Fe       4.47368163       1.98069598      12.10686849        1       0.72922544      -0.00883768       1.26539159       0.02591793
Fe       6.85044192       1.98487394      12.10678346        1      -0.99201701       0.05097292       3.33343817       0.00858519
Fe       3.11615338       3.77708131      11.83899590        1      -0.41227645      -0.16229383       0.49586298       0.01603857
Fe       5.66167640       4.54490648      11.82915865        1       0.04929343      -0.04630490       0.08523312       0.01925233
Fe       8.20150754       3.79684420      11.83610770        1       0.62743755       0.05585895       0.67926886       0.01645812
N        6.11884435       2.00168159      13.70291833        0      -0.15320892       0.01222643       0.66404636      -0.22743385
H        7.86772695       2.00169852      14.02851647        0       0.00121503       0.00116423      -0.00058577       0.31508766
H        5.89019281       2.02163598      14.70443191        0       0.15022750      -0.01369320      -0.65834858       0.27803262
O        0.95741779       2.00179028      14.32439003        0      -0.00033078      -0.00107517       0.00038096      -0.51450899
