41
Lattice="7.708127040155146 0.0 0.0 3.854063520077573 6.675433832372109 0.0 0.0 0.0 22.29365937364323" Properties=species:S:1:pos:R:3:tags:I:1:forces:R:3:charge:R:1 energy=-4706.896421566089 free_energy=-4706.896421566089 stress="-0.013579809018782535 3.3366162284105606e-06 1.043130764342294e-06 3.3366162284105606e-06 -0.013598871572115364 -1.5831229617647845e-07 1.043130764342294e-06 -1.5831229617647845e-07 -0.015275665386828617" dipole="0.7648917505907833 0.4420867286932643 1.1153635962031965" pbc="T T F"
Cu      -0.00000000      -0.00000000       8.00000000        4      -0.01598430      -0.01212584      -0.27716266       0.00870408
Cu       2.56937568       0.00000000       8.00000000        4       0.01850543      -0.00779493      -0.27721704       0.00869374
Cu       5.13875136       0.00000000       8.00000000        4      -0.00251120      -0.03665627      -0.32112953      -0.00511227
Cu       1.28468784       2.22514461       8.00000000        4      -0.00247772       0.01989806      -0.27717478       0.00869076
Cu       3.85406352       2.22514461       8.00000000        4       0.04578656       0.02362003      -0.27318170      -0.00914921
Cu       6.42343920       2.22514461       8.00000000        4      -0.04332049       0.02787772      -0.27311709      -0.00911867
Cu       2.56937568       4.45028922       8.00000000        4      -0.03044168       0.02043381      -0.32114744      -0.00514348
Cu       5.13875136       4.45028922       8.00000000        4      -0.00255443      -0.05146907      -0.27320621      -0.00916849
Cu       7.70812704       4.45028922       8.00000000        4       0.03297182       0.01621453      -0.32112425      -0.00510481
Cu       1.28468784       0.74171487      10.09788646        3       0.00003586       0.00005464      -0.00172454      -0.02555562
Cu       3.85406352       0.74171487      10.09788646        3      -0.01494602      -0.08679593      -0.06715075      -0.00423052
Cu       6.42343920       0.74171487      10.09788646        3       0.01486269      -0.08670284      -0.06375217      -0.00324406
Cu       2.56937568       2.96685948      10.09788646        3      -0.08258542       0.03044181      -0.06366227      -0.00329286
Cu       5.13875136       2.96685948      10.09788646        3      -0.00003580       0.00000311      -0.19939300       0.05028682
Cu       7.70812704       2.96685948      10.09788646        3       0.08269911       0.03044920      -0.06726145      -0.00420216
Cu       3.85406352       5.19200409      10.09788646        3      -0.06767839       0.05624665      -0.06713480      -0.00424736
Cu       6.42343920       5.19200409      10.09788646        3       0.06768115       0.05629750      -0.06372885      -0.00327360
Cu       8.99281488       5.19200409      10.09788646        3      -0.00004361       0.00000377       0.02845002      -0.01610366
Cu      -0.00001456       1.48341895      12.22216237        2       0.01243424      -0.00381273       0.10871572       0.00119232
Cu       2.56938632       1.48343972      12.22228812        2      -0.00972871      -0.00869652       0.10840871       0.00117923
Cu       5.13868200       1.48341490      12.22229490        2      -0.00210877       0.01133194       0.02905402      -0.04954311
Cu       1.28472730       3.70860469      12.22229670        2      -0.00241773      -0.03638305       0.07278556       0.00743522
Cu       3.85404919       3.70853617      12.22226661        2       0.01104115      -0.00334239       0.02907979      -0.04954365
Cu       6.42343137       3.70855859      12.22219237        2      -0.00843694      -0.00763496       0.02919312      -0.04954618
Cu       2.56933175       5.93372331      12.22226822        2       0.03268621       0.01619788       0.07284764       0.00743125
Cu       5.13873976       5.93371007      12.22221793        2      -0.00280675       0.01256915       0.10850113       0.00116358
Cu       7.70811165       5.93376676      12.22227910        2      -0.03037998       0.01980633       0.07295055       0.00743887
Cu       0.00003176       0.00005032      14.34901118        1      -0.00527022      -0.00916032       0.36667569      -0.06429455
Cu       2.56930125       0.00001804      14.34916312        1       0.01054980      -0.00028368       0.36644927      -0.06427562
Cu       5.13864853       0.00002580      14.34922433        1      -0.00022804      -0.23892061       0.26409931      -0.03416060
Cu       1.28470809       2.22517124      14.34907163        1      -0.00452273       0.00915278       0.36652751      -0.06425578
Cu       3.85409307       2.22518508      14.34928516        1      -0.26352919      -0.13899445       0.21711793       0.18916213
Cu       6.42349021       2.22507450      14.34904494        1       0.25215879      -0.15869884       0.21846571       0.18938041
Cu       2.56959011       4.45037276      14.34913478        1      -0.20716305       0.11968253       0.26414337      -0.03418493
Cu       5.13896751       4.45026038      14.34907842        1       0.01084581       0.29783334       0.21688454       0.18921967
Cu       7.70816084       4.45028686      14.34912297        1       0.20736968       0.11900797       0.26417987      -0.03417806
O        5.13922321       2.96677365      15.76076439        0       0.00065206       0.00007938       0.00321800      -0.43609829
C        5.13790985       2.96832204      17.18181307        0      -0.00507468       0.00186002      -0.00161118       0.17559737
H        6.15055036       2.79163149      17.55712419        0      -0.00591268       0.00400036      -0.00082288       0.04715215
H        4.78426730       3.93446402      17.55400742        0      -0.00330491       0.00330831       0.00219068       0.04713790
H        4.47611282       2.18126799      17.55584140        0       0.01318307      -0.00889838       0.00076448       0.04716208
