29
Lattice="8.493 0.0 0.0 4.2465 6.005457892617349 0.0 0.0 0.0 20.003638595078232" Properties=species:S:1:pos:R:3:tags:I:1:forces:R:3:charge:R:1 charge=0 spin=0 energy=-2099.9363473941257 free_energy=-2099.9363473941257 stress="0.02103097219272898 -0.001170819323828355 0.0004988097768477076 -0.001170819323828355 0.005347520170180656 -0.0007003880711485357 0.0004988097768477076 -0.0007003880711485357 -0.0020052907420898976" dipole="0.41173445620204047 0.10234255977410249 0.7201307154171562" pbc="T T T"
Fe       0.00000000       0.00000000       8.00000000        3       0.05598972      -0.07094096      -0.09520229      -0.00189270
Fe       2.83100000       0.00000000       8.00000000        3      -0.16576410       0.01597154      -0.05404622      -0.00278968
Fe       5.66200000       0.00000000       8.00000000        3       0.01042943       0.03081924      -0.05004087      -0.00357112
Fe       1.41550000       2.00181930       8.00000000        3       0.04108446      -0.05305213      -0.13245354      -0.00193999
Fe       4.24650000       2.00181930       8.00000000        3      -0.04309888       0.00601670       0.06279960      -0.00404285
Fe       7.07750000       2.00181930       8.00000000        3       0.00953160       0.01419307      -0.10238095      -0.00237844
Fe       2.83100000       4.00363860       8.00000000        3       0.10774775      -0.05351621      -0.03074984      -0.00249555
Fe       5.66200000       4.00363860       8.00000000        3      -0.06814544      -0.02419947      -0.02436811      -0.00388500
Fe       8.49300000       4.00363860       8.00000000        3       0.08299918       0.01057514       0.01681111      -0.00272998
Fe       0.00000000       2.00181930      10.00181930        2      -0.11399333       0.29860958      -0.31858757       0.00413215
Fe       2.83100000       2.00181930      10.00181930        2      -0.15813191      -0.30714105       0.32884275       0.00047076
Fe       5.66200000       2.00181930      10.00181930        2       0.29679718      -0.20166440      -0.72613198       0.00961348
Fe       1.41550000       4.00363860      10.00181930        2       0.15425878       0.44052591      -0.38499767       0.00171645
Fe       4.24650000       4.00363860      10.00181930        2       0.06699843      -0.23280672       0.22668177       0.00082401
Fe       7.07750000       4.00363860      10.00181930        2      -0.11593455      -0.16676731      -0.64589494       0.00825758
Fe       2.83100000       6.00545789      10.00181930        2       0.01659832       0.41150339      -0.59346071       0.00263951
Fe       5.66200000       6.00545789      10.00181930        2      -0.10075053      -0.29465436       0.12662889      -0.00016147
Fe       8.49300000       6.00545789      10.00181930        2       0.35682265      -0.39563082      -1.20348036       0.00440745
Fe      -0.39294215      -0.64081239      11.89914594        1       0.06485068      -0.10399328       0.09930646       0.01419820
Fe       3.15129007       0.29900728      11.82621820        1      -0.53015063       0.23697048       0.84004915       0.00998873
Fe       5.67580923      -0.51311943      11.82642584        1       0.22418356      -0.34046223      -0.01737099       0.01478077
Fe       1.05372265       1.35349095      11.91274636        1      -0.11775537       0.29956475       0.92554616      -0.02638743
Fe       4.55718257       2.19495814      11.91059787        1       0.41707850       0.10142956       0.76272468       0.04767636
Fe       7.10981515       1.49918791      11.89013415        1      -0.99803522       1.33555204       2.95294072       0.06331883
Fe       2.47355433       3.34496955      11.89808500        1       0.17610452       0.19716041       0.27331458       0.00249653
Fe       5.98591592       4.41079687      11.91895696        1       0.23849562      -0.48876442       1.02777240       0.05287964
Fe       8.55500895       3.53463000      11.82006576        1      -0.11151802      -0.18857914       0.91525579       0.01827468
O        6.57678567       2.52376250      13.18164793        0      -0.00325327      -0.00199240      -0.00186161      -0.34567948
H        8.90184814       2.15930031      13.27902404        0      -0.00011731       0.00172338       0.00097576       0.14227853
