31
Lattice="8.493 0.0 0.0 4.2465 6.005457892617349 0.0 0.0 0.0 20.003638595078232" Properties=species:S:1:pos:R:3:tags:I:1:forces:R:3:charge:R:1 charge=0 spin=0 energy=-2457.0290589055626 free_energy=-2457.0290589055626 stress="0.021420409082467336 0.0013605624783099388 -0.0013897607588884634 0.0013605624783099388 0.001839885274303911 0.0001505871627935771 -0.0013897607588884634 0.0001505871627935771 -0.0034735075109201246" dipole="0.380235878764784 0.01732787423052043 1.9671851229505037" pbc="T T T"
Fe       0.00000000       0.00000000       8.00000000        3       0.07633016      -0.02966822      -0.01437072      -0.00658237
Fe       2.83100000       0.00000000       8.00000000        3      -0.06805997      -0.04063544      -0.03084682      -0.00641961
Fe       5.66200000       0.00000000       8.00000000        3       0.00168654       0.02786398      -0.12121252      -0.00627177
Fe       1.41550000       2.00181930       8.00000000        3       0.01390558      -0.00638102       0.09726263      -0.00713180
Fe       4.24650000       2.00181930       8.00000000        3      -0.01738644      -0.00861092       0.04565481      -0.00615649
Fe       7.07750000       2.00181930       8.00000000        3       0.04220713       0.00198586      -0.01851548      -0.00637830
Fe       2.83100000       4.00363860       8.00000000        3      -0.09511005       0.02923144       0.00629288      -0.00685303
Fe       5.66200000       4.00363860       8.00000000        3      -0.00073432      -0.00979661      -0.10797749      -0.00565922
Fe       8.49300000       4.00363860       8.00000000        3       0.08940955       0.03388230      -0.00116319      -0.00666228
Fe       0.00000000       2.00181930      10.00181930        2      -0.87748949       0.02838463       0.05744732      -0.00048741
Fe       2.83100000       2.00181930      10.00181930        2       0.70910203      -0.00085069      -0.13196265      -0.00259748
Fe       5.66200000       2.00181930      10.00181930        2      -0.05636524       0.04231921      -0.33601374      -0.00044804
Fe       1.41550000       4.00363860      10.00181930        2       0.04337854      -0.24299130       0.25484091       0.00029963
Fe       4.24650000       4.00363860      10.00181930        2       0.54624286       0.07861828      -0.92522157      -0.00078405
Fe       7.07750000       4.00363860      10.00181930        2      -0.46999635       0.09129532      -1.06569938       0.00062139
Fe       2.83100000       6.00545789      10.00181930        2      -0.44275141      -0.10449422      -0.78758927       0.00114488
Fe       5.66200000       6.00545789      10.00181930        2       0.00130811       0.26110909       0.23566516       0.00009789
Fe       8.49300000       6.00545789      10.00181930        2       0.50291272      -0.07623467      -0.86346726      -0.00022335
Fe      -0.26518266       0.20945978      11.83722203        1       0.48194026      -0.01696554       0.32804238      -0.01886005
Fe       3.10512793       0.18549752      11.83541618        1      -0.45409260      -0.17509585       0.37245616       0.00206754
Fe       5.66127124      -0.56860039      11.83522456        1       0.02155221      -0.27007051      -0.10387277      -0.00386578
Fe       1.41585411       2.01518229      11.75852330        1      -0.19234395      -0.02444107       0.28644411      -0.00290526
Fe       4.47368163       1.98069598      12.10686849        1       0.20822084      -0.16771991       2.39121388       0.02472931
Fe       6.85044192       1.98487394      12.10678346        1      -0.24987968       0.28909113       1.09982222      -0.00952276
Fe       3.11615338       3.77708131      11.83899590        1      -0.55556153       0.18027954       0.39171517       0.00043291
Fe       5.66167640       4.54490648      11.82915865        1      -0.06234085       0.29818419       0.02990408      -0.00338539
Fe       8.20150754       3.79684420      11.83610770        1       0.53432814      -0.05206719       0.46187801      -0.01353805
N        5.65426519       1.99900019      13.63522437        0       0.08135191      -0.19007452       0.10317697      -0.13605862
H        5.11302938       2.75420729      14.56722116        0       0.00291722       0.00386405       0.00018731       0.41830674
H        6.01830619       1.16261461      14.10811809        0      -0.08238172       0.18864439      -0.10594893       0.26076304
O        4.25558313       2.00398843      14.41124900        0      -0.00197943      -0.00863359      -0.00318047      -0.45767220
