31
Lattice="8.493 0.0 0.0 4.2465 6.005457892617349 0.0 0.0 0.0 20.003638595078232" Properties=species:S:1:pos:R:3:initial_charges:R:1:tags:I:1:forces:R:3 charge=0 spin=0 energy=-204.59204013338788 free_energy=-204.59204013338788 stress="0.05233720690011978 0.00020554852380882949 6.508237129310146e-05 0.00020554852380882949 0.017944427207112312 0.001977836014702916 6.508237129310146e-05 0.001977836014702916 0.008900599554181099" dipole="-0.07171229966003359 0.1706360988064386 2.191401106655007" pbc="T T T"
Fe       0.00000000       0.00000000       8.00000000      -0.00692348        3       0.02339156       0.09789976       0.48322001
Fe       2.83100000       0.00000000       8.00000000      -0.00641000        3      -0.01247043       0.11517163       0.39675438
Fe       5.66200000       0.00000000       8.00000000      -0.00584789        3      -0.00795355       0.10328919       0.45618075
Fe       1.41550000       2.00181930       8.00000000      -0.00719763        3       0.01516519       0.10641778       0.64662796
Fe       4.24650000       2.00181930       8.00000000      -0.00614152        3      -0.03938860       0.11292659       0.61806422
Fe       7.07750000       2.00181930       8.00000000      -0.00639165        3      -0.00121770       0.13169120       0.50441051
Fe       2.83100000       4.00363860       8.00000000      -0.00609024        3       0.00264834       0.08562652       0.61398065
Fe       5.66200000       4.00363860       8.00000000      -0.00578655        3       0.02954726       0.10732090       0.42903516
Fe       8.49300000       4.00363860       8.00000000      -0.00652866        3      -0.01708798       0.12787431       0.41137585
Fe       0.00000000       2.00181930      10.00181930       0.00316122        2      -0.01325331      -0.34978110      -0.65228480
Fe       2.83100000       2.00181930      10.00181930      -0.00167571        2      -0.01805197       0.47744286      -0.26377901
Fe       5.66200000       2.00181930      10.00181930       0.00191583        2       0.01751327      -0.42835668      -0.66285950
Fe       1.41550000       4.00363860      10.00181930      -0.00206873        2      -0.56894451      -0.08472686      -0.39038879
Fe       4.24650000       4.00363860      10.00181930       0.00008815        2       0.57762396      -0.08532419      -0.51817930
Fe       7.07750000       4.00363860      10.00181930       0.00072868        2      -0.02676138      -0.31487113      -0.69866896
Fe       2.83100000       6.00545789      10.00181930       0.00247436        2      -0.02119581      -0.41733405      -0.25712687
Fe       5.66200000       6.00545789      10.00181930       0.00004444        2       0.25559148       0.10818306      -0.57327312
Fe       8.49300000       6.00545789      10.00181930       0.00039069        2      -0.15743265       0.09648239      -0.55167091
Fe      -0.01122425       0.39844124      11.86055911       0.05498801        1      -0.01092459       0.00757601       0.01469089
Fe       2.87034326       0.68133269      11.83263581      -0.00777343        1       0.01300893      -0.00027178      -0.00241337
Fe       5.67033038       0.37895393      11.89282136       0.01499549        1      -0.01016260       0.01648067       0.00877398
Fe       1.16552255       2.61935564      11.92620933       0.02121099        1      -0.00464881      -0.00327510      -0.00094236
Fe       4.51359074       2.57557019      11.92384744       0.01082047        1      -0.00154418      -0.00486186      -0.00090441
Fe       7.04634138       2.61620445      11.90733420       0.04591351        1      -0.01934544       0.01242068      -0.01305450
Fe       2.84518844       4.32655542      11.77416527      -0.00168355        1      -0.00543801       0.00357002      -0.00153776
Fe       5.80716243       4.67472235      11.83944071       0.01201397        1      -0.00237527       0.00491964      -0.00418212
Fe       8.32594555       4.66345002      11.83915502       0.00337033        1       0.00167211      -0.01032056       0.00130374
N        5.82168585       1.75017295      13.20842176      -0.34501021        0       0.01077128      -0.00981947      -0.02153547
H        7.17732208       1.69036726      13.50043581       0.39890486        0       0.01063089      -0.00418789      -0.00322336
H        5.40034672       1.85703054      14.14261658       0.25427472        0      -0.01651720       0.01202570       0.02429571
O        8.35426818       1.72798431      13.18285178      -0.40976650        0      -0.00285042      -0.01418879       0.00731030
