29
Lattice="8.493 0.0 0.0 4.2465 6.005457892617349 0.0 0.0 0.0 20.003638595078232" Properties=species:S:1:pos:R:3:tags:I:1:forces:R:3:charge:R:1 charge=0 spin=0 energy=-2340.6588131430494 free_energy=-2340.6588131430494 stress="0.01880278336561223 -0.0003093592469664488 -0.00023080958666997164 -0.0003093592469664488 0.004631825694681772 -0.0006048954844436096 -0.00023080958666997164 -0.0006048954844436096 0.0021109743053221524" dipole="0.9280357231213715 0.12216958227609596 0.4052780126908441" pbc="T T T"
Fe       0.00000000       0.00000000       8.00000000        3       0.01237265      -0.03992352      -0.12123305       0.00056247
Fe       2.83100000       0.00000000       8.00000000        3      -0.01346532      -0.00648490      -0.01939183       0.00101733
Fe       5.66200000       0.00000000       8.00000000        3       0.01600837       0.03087474      -0.00935763       0.00089716
Fe       1.41550000       2.00181930       8.00000000        3      -0.11400924      -0.02048671       0.04902822       0.00004196
Fe       4.24650000       2.00181930       8.00000000        3       0.01037396      -0.11878074      -0.00823571      -0.00040225
Fe       7.07750000       2.00181930       8.00000000        3       0.10050994      -0.03637601       0.04967165       0.00004172
Fe       2.83100000       4.00363860       8.00000000        3       0.07838127      -0.05340499       0.12730371       0.00021870
Fe       5.66200000       4.00363860       8.00000000        3      -0.05898348      -0.04530316       0.11329266       0.00009799
Fe       8.49300000       4.00363860       8.00000000        3      -0.00660410       0.03436397      -0.17348178       0.00035141
Fe       0.00000000       2.00181930      10.00181930        2      -0.21771385       0.04673261       0.37568214      -0.00146853
Fe       2.83100000       2.00181930      10.00181930        2       0.13874112       0.10571130      -1.42400086       0.00695963
Fe       5.66200000       2.00181930      10.00181930        2       0.31135098       0.24405098      -0.97822073       0.00759845
Fe       1.41550000       4.00363860      10.00181930        2      -0.50409134       0.05817011      -0.81223847       0.00273592
Fe       4.24650000       4.00363860      10.00181930        2       0.14090118      -0.15870329      -0.06848143       0.00650758
Fe       7.07750000       4.00363860      10.00181930        2       0.08102282      -0.08071701      -0.45000469       0.00232827
Fe       2.83100000       6.00545789      10.00181930        2      -0.54402520       0.12374484       0.07941421       0.00005024
Fe       5.66200000       6.00545789      10.00181930        2       0.54412152       0.19455363       0.15326422       0.00007402
Fe       8.49300000       6.00545789      10.00181930        2       0.03495516       0.11441501      -1.11912205       0.00212006
Fe      -0.00001286      -0.00009696      11.75033812        1      -0.01777632       0.45689084      -0.16267793       0.03166830
Fe       3.07159637       0.03099151      11.91004278        1      -0.09992157      -0.42441052       0.20908877       0.03559380
Fe       5.42143221      -0.03111893      11.91005365        1       0.08963750      -0.32018362       0.15116847       0.03465461
Fe       1.65226266       1.83399823      11.85374402        1       0.27989952       0.34177893       1.42551560       0.05065307
Fe       4.20554567       2.38623638      11.86516243        1       0.12317457       1.04702705       3.47178582       0.10127218
Fe       6.79319282       1.77884592      11.98628905        1      -0.67273413       0.63448429       1.01939395       0.05782948
Fe       2.59420062       4.17122996      11.85375328        1       0.83019633      -0.88326290       3.37277524       0.06809369
Fe       5.94626350       4.22678979      11.98607328        1      -0.79917850      -1.48129320       2.90701790       0.07412569
Fe       8.53396109       3.61914660      11.86517145        1      -0.12019397      -0.54109346      -0.22773209       0.03543988
O        5.41646796       3.00610337      13.17517196        0       0.00461267       0.00513923       0.00335789      -0.25819224
O        3.07878204       3.00511995      13.17602474        0       0.00562567      -0.01496491       0.00759164      -0.26087057
