29
Lattice="8.493 0.0 0.0 4.2465 6.005457892617349 0.0 0.0 0.0 20.003638595078232" Properties=species:S:1:pos:R:3:tags:I:1 charge=0 spin=0 energy=-179.13274077550895 free_energy=-179.13274077550895 stress="0.046851497143507004 -4.2255876905983314e-05 7.910526400589646e-11 -4.2255876905983314e-05 0.03193148225545883 -1.0529813687654155e-09 7.910526400589646e-11 -1.0529813687654155e-09 0.009996387176215649" pbc="T T T"
Fe       0.00000000       0.00000000       8.00000000        3
Fe       2.83100000       0.00000000       8.00000000        3
Fe       5.66200000       0.00000000       8.00000000        3
Fe       1.41550000       2.00181930       8.00000000        3
Fe       4.24650000       2.00181930       8.00000000        3
Fe       7.07750000       2.00181930       8.00000000        3
Fe       2.83100000       4.00363860       8.00000000        3
Fe       5.66200000       4.00363860       8.00000000        3
Fe       8.49300000       4.00363860       8.00000000        3
Fe       0.00000000       2.00181930      10.00181930        2
Fe       2.83100000       2.00181930      10.00181930        2
Fe       5.66200000       2.00181930      10.00181930        2
Fe       1.41550000       4.00363860      10.00181930        2
Fe       4.24650000       4.00363860      10.00181930        2
Fe       7.07750000       4.00363860      10.00181930        2
Fe       2.83100000       6.00545789      10.00181930        2
Fe       5.66200000       6.00545789      10.00181930        2
Fe       8.49300000       6.00545789      10.00181930        2
Fe      -0.00000012       0.00000020      11.86921836        1
Fe       2.83100016       0.00000035      11.86921839        1
Fe       5.66200003       0.00000008      11.86921869        1
Fe       1.41549989       2.00181936      11.86921840        1
Fe       4.24649998       2.00181935      11.86921844        1
Fe       7.07749989       2.00181941      11.86921848        1
Fe       2.83100014       4.00363829      11.86921823        1
Fe       5.66200001       4.00363868      11.86921845        1
Fe       8.49299997       4.00363863      11.86921845        1
O        5.66199970       2.00182625      13.48931069        0
H        5.66196885       2.00179165      14.37522824        0
