29
Lattice="8.493 0.0 0.0 4.2465 6.005457892617349 0.0 0.0 0.0 20.003638595078232" Properties=species:S:1:pos:R:3:tags:I:1:forces:R:3 charge=0 spin=0 energy=-189.77159551783518 free_energy=-189.77159551783518 stress="0.04543621465563774 -7.442783680744469e-05 -3.0638524606274586e-08 -7.442783680744469e-05 0.03203856572508812 -3.8935212387514184e-08 -3.0638524606274586e-08 -3.8935212387514184e-08 0.012278023175895214" pbc="T T T"
Fe       0.00000000       0.00000000       8.00000000        3      -0.00990243       0.00846807       0.55027890
Fe       2.83100000       0.00000000       8.00000000        3       0.00659175       0.00672239       0.54761571
Fe       5.66200000       0.00000000       8.00000000        3       0.01296392      -0.00914869       0.53956336
Fe       1.41550000       2.00181930       8.00000000        3      -0.00000011      -0.00000007       0.49001896
Fe       4.24650000       2.00181930       8.00000000        3       0.00431110      -0.00040820       0.56750071
Fe       7.07750000       2.00181930       8.00000000        3      -0.00431097       0.00040764       0.56750083
Fe       2.83100000       4.00363860       8.00000000        3       0.00990383      -0.00846752       0.55028129
Fe       5.66200000       4.00363860       8.00000000        3      -0.01296473       0.00914800       0.53956115
Fe       8.49300000       4.00363860       8.00000000        3      -0.00659264      -0.00672170       0.54761654
Fe       0.00000000       2.00181930      10.00181930        2      -0.01050685       0.03567076      -0.37336934
Fe       2.83100000       2.00181930      10.00181930        2       0.01049876      -0.03566929      -0.37337506
Fe       5.66200000       2.00181930      10.00181930        2      -0.00000366      -0.00000309      -0.57281709
Fe       1.41550000       4.00363860      10.00181930        2      -0.01569909       0.05289192      -0.55642182
Fe       4.24650000       4.00363860      10.00181930        2       0.05883758      -0.10603567      -0.49814597
Fe       7.07750000       4.00363860      10.00181930        2      -0.05306581      -0.08224307      -0.49356809
Fe       2.83100000       6.00545789      10.00181930        2      -0.05882383       0.10603347      -0.49814683
Fe       5.66200000       6.00545789      10.00181930        2       0.01569455      -0.05289025      -0.55642110
Fe       8.49300000       6.00545789      10.00181930        2       0.05305913       0.08224715      -0.49357346
Fe       0.00299235       0.00300990      11.85983431        1       0.01076359       0.07549854      -0.11678916
Fe       2.82676783       0.00205046      11.85977550        1      -0.02624066       0.05739918      -0.11743494
Fe       5.66473870      -0.01792761      11.87493073        1       0.03532271      -0.26357079       0.03973072
Fe       1.41549985       2.00181927      11.86973100        1      -0.00000075      -0.00000052       0.01000553
Fe       4.24653503       2.00477282      11.90266229        1      -0.02189947       0.04272134       0.39641646
Fe       7.07746734       1.99886555      11.90266149        1       0.02192097      -0.04272970       0.39640975
Fe       2.82800769       4.00062838      11.85983403        1      -0.01076074      -0.07550559      -0.11678895
Fe       5.65926115       4.02156573      11.87493196        1      -0.03532529       0.26356056       0.03975197
Fe       8.49723243       4.00158873      11.85977553        1       0.02624121      -0.05739404      -0.11743399
O        5.66199684       2.00182784      13.40402744        0      -0.00004644       0.00000351      -0.42340368
H        5.66196998       2.00179088      14.38872494        0       0.00003429       0.00001558      -0.47456297
