29
Lattice="8.493 0.0 0.0 4.2465 6.005457892617349 0.0 0.0 0.0 20.003638595078232" Properties=species:S:1:pos:R:3:tags:I:1:forces:R:3 charge=0 spin=0 energy=-189.34268716975168 free_energy=-189.34268716975168 stress="0.045061782002449036 -0.0001231057831319049 3.572387754502415e-07 -0.0001231057831319049 0.03140482306480408 -1.7678689800959546e-06 3.572387754502415e-07 -1.7678689800959546e-06 0.009434456937015057" pbc="T T T"
Fe       0.00000000       0.00000000       8.00000000        3       0.02518479      -0.01138790       0.53322339
Fe       2.83100000       0.00000000       8.00000000        3      -0.00475914       0.01308810       0.49711695
Fe       5.66200000       0.00000000       8.00000000        3      -0.02419619      -0.02185795       0.52431905
Fe       1.41550000       2.00181930       8.00000000        3      -0.06948556       0.00821101       0.61554456
Fe       4.24650000       2.00181930       8.00000000        3       0.06945652      -0.00819041       0.61555427
Fe       7.07750000       2.00181930       8.00000000        3      -0.00003516       0.00003494       0.60425556
Fe       2.83100000       4.00363860       8.00000000        3       0.00474795      -0.01302200       0.49713933
Fe       5.66200000       4.00363860       8.00000000        3      -0.02514505       0.01140215       0.53323668
Fe       8.49300000       4.00363860       8.00000000        3       0.02422125       0.02186620       0.52425343
Fe       0.00000000       2.00181930      10.00181930        2      -0.52456301       0.00791365       0.05632277
Fe       2.83100000       2.00181930      10.00181930        2       0.00004069      -0.00000099      -0.70533705
Fe       5.66200000       2.00181930      10.00181930        2       0.52452493      -0.00828809       0.05614443
Fe       1.41550000       4.00363860      10.00181930        2       0.07841824      -0.05781956      -0.66021740
Fe       4.24650000       4.00363860      10.00181930        2      -0.10711657      -0.03648037      -0.65182406
Fe       7.07750000       4.00363860      10.00181930        2       0.00610403       0.04189363      -0.68635720
Fe       2.83100000       6.00545789      10.00181930        2      -0.00600213      -0.04178161      -0.68609947
Fe       5.66200000       6.00545789      10.00181930        2       0.10684116       0.03629588      -0.65165013
Fe       8.49300000       6.00545789      10.00181930        2      -0.07821666       0.05773947      -0.66008484
Fe       0.02599005      -0.00540382      11.83453830        1       0.05849708       0.10379458      -0.16444536
Fe       2.83091625      -0.00392901      11.86545218        1       0.00249888      -0.10156411      -0.00515482
Fe       5.63676993      -0.00811098      11.83883957        1      -0.06471469       0.08182425      -0.14477420
Fe       1.44453180       2.00249661      11.85871553        1       0.19154307      -0.00178145      -0.02338721
Fe       4.21748607       2.00114584      11.85872113        1      -0.19129804       0.00183522      -0.02329277
Fe       7.07741872       2.00201197      12.10808714        1      -0.00077082       0.00201253       0.02072390
Fe       2.83108194       4.00758760      11.86544696        1      -0.00252912       0.10176644      -0.00521771
Fe       5.63602603       4.00905698      11.83452008        1      -0.05818294      -0.10374178      -0.16450444
Fe       8.51822797       4.01173359      11.83882170        1       0.06454154      -0.08206017      -0.14481626
O        7.07766013       2.00121071      13.85871757        0       0.00137588      -0.00616788      -0.02936845
H        7.07722369       2.00377286      14.81799663        0      -0.00098088       0.00446613       0.32869625
