2
Lattice="20.698000449549408 0.0 0.0 0.0 20.0 0.0 0.0 0.0 20.0" Properties=species:S:1:pos:R:3:forces:R:3 charge=0 spin=1 energy=-31.58942758899333 stress="1.5375793793737103e-07 9.19663734809975e-20 -2.122302629064845e-20 9.19663734809975e-20 0.0 0.0 -2.122302629064845e-20 0.0 0.0" free_energy=-31.58942758899333 pbc="T T T"
H       10.71973162      10.00000000      10.00000000      -0.00171687      -0.00000000       0.00000000
H        9.97826883      10.00000000      10.00000000       0.00171687       0.00000000      -0.00000000
