29
Lattice="8.493 0.0 0.0 4.2465 6.005457892617349 0.0 0.0 0.0 20.003638595078232" Properties=species:S:1:pos:R:3:tags:I:1:forces:R:3:charge:R:1 charge=0 spin=0 energy=-2244.5074314129547 free_energy=-2244.5074314129547 stress="0.020754038236013496 0.0004213393611511857 0.000226745633753055 0.0004213393611511857 0.0031793289078930883 -0.0005975905768305619 0.000226745633753055 -0.0005975905768305619 -0.008657558991738064" dipole="-0.5907819736476464 -0.004790229731035647 0.32037250080453533" pbc="T T T"
Fe       0.00000000       0.00000000       8.00000000        3      -0.07082131       0.00580589      -0.05725691      -0.00323972
Fe       2.83100000       0.00000000       8.00000000        3      -0.00530635       0.00963757      -0.20063961      -0.00275066
Fe       5.66200000       0.00000000       8.00000000        3       0.06800617       0.02768387      -0.00977103      -0.00468645
Fe       1.41550000       2.00181930       8.00000000        3      -0.06209786      -0.00792542      -0.00121739      -0.00297654
Fe       4.24650000       2.00181930       8.00000000        3       0.03623995       0.00487058       0.00471468      -0.00396427
Fe       7.07750000       2.00181930       8.00000000        3       0.00288145       0.00287071      -0.09574697      -0.00486679
Fe       2.83100000       4.00363860       8.00000000        3      -0.00129678       0.01600098      -0.19608019      -0.00306607
Fe       5.66200000       4.00363860       8.00000000        3       0.09221957      -0.01948433      -0.02698744      -0.00365364
Fe       8.49300000       4.00363860       8.00000000        3      -0.06062811      -0.01083976      -0.03231898      -0.00419920
Fe       0.00000000       2.00181930      10.00181930        2       0.01461946       0.01630002      -0.27415202       0.00218881
Fe       2.83100000       2.00181930      10.00181930        2       0.06602640       0.02891493      -1.19933821       0.00387029
Fe       5.66200000       2.00181930      10.00181930        2      -0.05549680       0.00256763      -0.18267692       0.00420411
Fe       1.41550000       4.00363860      10.00181930        2       0.27754644      -0.13369376      -0.82944750       0.00366489
Fe       4.24650000       4.00363860      10.00181930        2      -0.27596593      -0.13689627      -0.82214920       0.00405357
Fe       7.07750000       4.00363860      10.00181930        2      -0.00986027      -0.17533514       0.31098636       0.00230413
Fe       2.83100000       6.00545789      10.00181930        2       0.01872535       0.22185276       0.31804168       0.00258977
Fe       5.66200000       6.00545789      10.00181930        2       0.24080306       0.09566870      -0.88663580       0.00383879
Fe       8.49300000       6.00545789      10.00181930        2      -0.33833833       0.13600252      -0.80804586       0.00412368
Fe       0.28239819       0.14448347      11.85446863        1      -0.39445308      -0.58417932       0.53081175      -0.01871931
Fe       2.83520669      -0.39858603      11.85524643        1       0.04837017      -0.49874298       0.08736919      -0.00356942
Fe       5.36030756       0.15818307      11.85448413        1       0.13667645      -0.14638341       0.53489650       0.00431284
Fe       1.69185631       1.99567079      11.95831334        1       0.07209974      -0.11069352       0.92892256      -0.01670241
Fe       3.97400324       2.01030553      11.95735519        1       0.16004545       0.09211184       0.69398689      -0.00241502
Fe       7.07262559       2.00899732      12.01387572        1       0.06192945      -0.03085386       2.25524322       0.00791201
Fe       2.83019572       4.40394869      11.85510849        1       0.00564526       0.31555418       0.07869893      -0.00256080
Fe       5.37676556       3.87270238      11.85322702        1       0.17153666      -0.00186200       0.47541254       0.00302151
Fe       8.79793012       3.84489655      11.85537756        1      -0.19230240       0.34958491       0.65804268       0.00860031
N        7.50290604       1.80202549      13.51927683        0      -0.00575571       0.00381367       0.00233314      -0.09001764
H        9.28528923       0.96384495      13.03569065        0       0.00334486      -0.00385712       0.00086755       0.11270321
