29
Lattice="8.493 0.0 0.0 4.2465 6.005457892617349 0.0 0.0 0.0 20.003638595078232" Properties=species:S:1:pos:R:3:tags:I:1:forces:R:3:charge:R:1 charge=0 spin=0 energy=-2393.5627502610723 free_energy=-2393.5627502610723 stress="0.011783756040518067 0.0009091359992884825 -0.005720727328286951 0.0009091359992884825 -0.0018287194324399926 0.005216392726736257 -0.005720727328286951 0.005216392726736257 -0.010915043758063413" dipole="-0.5081162117768506 -0.550465008590193 0.8708924628374324" pbc="T T T"
Fe       0.00000000       0.00000000       8.00000000        3       0.00200344       0.04764795       0.08502875      -0.00138861
Fe       2.83100000       0.00000000       8.00000000        3       0.09536389       0.00055744       0.06189157      -0.00088980
Fe       5.66200000       0.00000000       8.00000000        3      -0.08298921       0.02540838       0.04856226      -0.00075600
Fe       1.41550000       2.00181930       8.00000000        3      -0.13569844      -0.00761052       0.00979250      -0.00091460
Fe       4.24650000       2.00181930       8.00000000        3       0.02971028      -0.05579044      -0.09637951      -0.00087401
Fe       7.07750000       2.00181930       8.00000000        3       0.10757562      -0.01257077      -0.01089619      -0.00060746
Fe       2.83100000       4.00363860       8.00000000        3       0.10093238      -0.04341911       0.11002242      -0.00179945
Fe       5.66200000       4.00363860       8.00000000        3      -0.09813177      -0.02861440       0.07866363      -0.00109902
Fe       8.49300000       4.00363860       8.00000000        3      -0.07528117       0.00854086      -0.07231947      -0.00104344
Fe       0.00000000       2.00181930      10.00181930        2      -0.11184517       0.08837053       0.24483534      -0.00056586
Fe       2.83100000       2.00181930      10.00181930        2       0.45296057       0.03183473      -0.72520624       0.00158349
Fe       5.66200000       2.00181930      10.00181930        2       0.00373314       0.05466444      -0.47635750       0.00186151
Fe       1.41550000       4.00363860      10.00181930        2      -0.36491205      -0.22029361      -0.77443506       0.00104599
Fe       4.24650000       4.00363860      10.00181930        2       0.24367992       0.01540844       0.29415605      -0.00024441
Fe       7.07750000       4.00363860      10.00181930        2       0.04906839      -0.00658821      -1.22972752       0.00943476
Fe       2.83100000       6.00545789      10.00181930        2      -0.40848106       0.03336603       0.16342179      -0.00085109
Fe       5.66200000       6.00545789      10.00181930        2       0.47399529      -0.09506635      -0.19152370       0.00183309
Fe       8.49300000       6.00545789      10.00181930        2      -0.02425144       0.16082078      -2.06234236       0.00743733
Fe      -0.00001286      -0.00009696      11.75033812        1      -0.14438079      -0.21349426       0.00638215       0.01538887
Fe       3.07159637       0.03099151      11.91004278        1      -4.59173958       4.34302171      -3.78416792       0.08031925
Fe       5.42143221      -0.03111893      11.91005365        1      -0.05925174      -0.13492947       1.45428110       0.05319660
Fe       1.65226266       1.83399823      11.85374402        1      -0.36250793       0.14927631       0.27085174       0.01823779
Fe       4.20554567       2.38623638      11.86516243        1      -0.34169497       0.70808209      -0.43619711       0.03560853
Fe       6.79319282       1.77884592      11.98628905        1       0.20207373       0.84113638       0.90769544       0.05642389
Fe       2.59420062       4.17122996      11.85375328        1       0.63085674      -0.14421723       0.44203779       0.01860208
Fe       5.94626350       4.22678979      11.98607328        1      -0.98909571      -0.52741969       0.92261192       0.08260180
Fe       8.53396109       3.61914660      11.86517145        1      -0.89331544      -0.02744321       1.56612968       0.08341307
O        6.84419826       3.64208572      13.11541571        0       0.00223530       0.00265125       0.00368798      -0.24799836
O        3.87152920      -0.60113717      12.90619374        0      -0.00906016       0.00152320       0.00074507      -0.20795591
