37
Lattice="7.708127040155146 0.0 0.0 3.854063520077573 6.675433832372109 0.0 0.0 0.0 22.29365937364323" Properties=species:S:1:pos:R:3:tags:I:1:forces:R:3:charge:R:1 energy=-4602.7463260049935 free_energy=-4602.7463260049935 stress="-0.013320757137289942 8.291286712016083e-07 4.982021278686663e-07 8.291286712016083e-07 -0.013320642397989609 1.6527382086584747e-07 4.982021278686663e-07 1.6527382086584747e-07 -0.016030959136775505" dipole="-0.34844361626541803 -0.2703222992955756 -0.06130024780102452" pbc="T T F"
Cu       0.00000000       0.00000000       8.00000000        4       0.01735118      -0.02315593      -0.28084385       0.01278921
Cu       2.56937568       0.00000000       8.00000000        4      -0.01730896      -0.02312455      -0.28085689       0.01278339
Cu       5.13875136       0.00000000       8.00000000        4      -0.00004436       0.00002281      -0.27598087       0.01613757
Cu       1.28468784       2.22514461       8.00000000        4      -0.00000919      -0.00000857      -0.30003168       0.01944946
Cu       3.85406352       2.22514461       8.00000000        4       0.01136463       0.02655472      -0.28083583       0.01278689
Cu       6.42343920       2.22514461       8.00000000        4      -0.01135916       0.02660714      -0.28084781       0.01279120
Cu       2.56937568       4.45028922       8.00000000        4       0.02874541      -0.00344184      -0.28081685       0.01279210
Cu       5.13875136       4.45028922       8.00000000        4      -0.00000849       0.00000925      -0.29575841      -0.03138980
Cu       7.70812704       4.45028922       8.00000000        4      -0.02873964      -0.00345197      -0.28084349       0.01279032
Cu       1.28468784       0.74171487      10.09788646        3       0.00003197       0.05237781      -0.04840484      -0.03718505
Cu       3.85406352       0.74171487      10.09788646        3      -0.01966758       0.01134151      -0.08888875      -0.01666567
Cu       6.42343920       0.74171487      10.09788646        3       0.01959960       0.01130884      -0.08889835      -0.01666630
Cu       2.56937568       2.96685948      10.09788646        3      -0.04536904      -0.02617702      -0.04828043      -0.03718783
Cu       5.13875136       2.96685948      10.09788646        3      -0.00003495       0.01612074      -0.10938227       0.02510440
Cu       7.70812704       2.96685948      10.09788646        3       0.04545654      -0.02617331      -0.04846943      -0.03717922
Cu       3.85406352       5.19200409      10.09788646        3       0.01392938      -0.00808569      -0.10934949       0.02510978
Cu       6.42343920       5.19200409      10.09788646        3      -0.01396084      -0.00805412      -0.10940248       0.02509758
Cu       8.99281488       5.19200409      10.09788646        3      -0.00000890      -0.02269392      -0.08883061      -0.01666700
Cu      -0.00001456       1.48341895      12.22216237        2      -0.01500320      -0.00858034       0.09997549       0.02778776
Cu       2.56938632       1.48343972      12.22228812        2       0.01498815      -0.00874037       0.09975675       0.02777909
Cu       5.13868200       1.48341490      12.22229490        2       0.00020441      -0.03778888       0.02714313      -0.03821585
Cu       1.28472730       3.70860469      12.22229670        2      -0.00021880       0.01735340       0.09970592       0.02778728
Cu       3.85404919       3.70853617      12.22226661        2       0.06117131       0.03539924       0.01315529      -0.08051337
Cu       6.42343137       3.70855859      12.22219237        2      -0.06083431       0.03526046       0.01329558      -0.08051496
Cu       2.56933175       5.93372331      12.22226822        2      -0.03268420       0.01896248       0.02722754      -0.03821513
Cu       5.13873976       5.93371007      12.22221793        2       0.00003116      -0.07047146       0.01318495      -0.08051178
Cu       7.70811165       5.93376676      12.22227910        2       0.03272665       0.01869003       0.02719547      -0.03821499
Cu       0.00003176       0.00005032      14.34901118        1      -0.01011946       0.04312558       0.33263971      -0.02066341
Cu       2.56930125       0.00001804      14.34916312        1       0.01032678       0.04341878       0.33252266      -0.02070147
Cu       5.13864853       0.00002580      14.34922433        1       0.00045781      -0.00018219       0.27967417       0.06836207
Cu       1.28470809       2.22517124      14.34907163        1       0.00012217       0.00017941       0.29895839       0.05861102
Cu       3.85409307       2.22518508      14.34928516        1      -0.03257390      -0.03037217       0.33225564      -0.02066905
Cu       6.42349021       2.22507450      14.34904494        1       0.03248487      -0.03014691       0.33261007      -0.02069786
Cu       2.56959011       4.45037276      14.34913478        1      -0.04314342      -0.01314472       0.33252601      -0.02067585
Cu       5.13896751       4.45026038      14.34907842        1      -0.00081547       0.00013094       0.30186799       0.74607137
Cu       7.70816084       4.45028686      14.34912297        1       0.04285916      -0.01301590       0.33249965      -0.02070042
O        5.13896928       4.45025426      15.93115992        0       0.00005269      -0.00005330       0.00052793      -0.47079546
