37
Lattice="7.708127040155146 0.0 0.0 3.854063520077573 6.675433832372109 0.0 0.0 0.0 22.29365937364323" Properties=species:S:1:pos:R:3:tags:I:1:forces:R:3:charge:R:1 energy=-4602.746134616893 free_energy=-4602.746134616893 stress="-0.013330355255946712 8.301484386040179e-07 5.036570075625268e-07 8.301484386040179e-07 -0.013330245659720043 1.611994910460292e-07 5.036570075625268e-07 1.611994910460292e-07 -0.01620720055274184" dipole="-0.344600722703735 -0.2645992199696353 -0.052493048019614505" pbc="T T F"
Cu       0.00000000       0.00000000       8.00000000        4       0.01761697      -0.02320443      -0.28092038       0.01271170
Cu       2.56937568       0.00000000       8.00000000        4      -0.01757473      -0.02317295      -0.28093334       0.01270590
Cu       5.13875136       0.00000000       8.00000000        4      -0.00004439       0.00002288      -0.27581831       0.01624797
Cu       1.28468784       2.22514461       8.00000000        4      -0.00000931      -0.00000845      -0.29994766       0.01955628
Cu       3.85406352       2.22514461       8.00000000        4       0.01127367       0.02680902      -0.28091227       0.01270941
Cu       6.42343920       2.22514461       8.00000000        4      -0.01126809       0.02686139      -0.28092423       0.01271370
Cu       2.56937568       4.45028922       8.00000000        4       0.02892027      -0.00364780      -0.28089338       0.01271459
Cu       5.13875136       4.45028922       8.00000000        4      -0.00000869       0.00000941      -0.29588417      -0.03149300
Cu       7.70812704       4.45028922       8.00000000        4      -0.02891430      -0.00365803      -0.28091992       0.01271283
Cu       1.28468784       0.74171487      10.09788646        3       0.00003202       0.05214105      -0.04844493      -0.03729870
Cu       3.85406352       0.74171487      10.09788646        3      -0.01976882       0.01140002      -0.08890464      -0.01671273
Cu       6.42343920       0.74171487      10.09788646        3       0.01970080       0.01136744      -0.08891439      -0.01671337
Cu       2.56937568       2.96685948      10.09788646        3      -0.04516392      -0.02605863      -0.04832026      -0.03730152
Cu       5.13875136       2.96685948      10.09788646        3      -0.00003506       0.01578555      -0.10937735       0.02521600
Cu       7.70812704       2.96685948      10.09788646        3       0.04525178      -0.02605509      -0.04850987      -0.03729288
Cu       3.85406352       5.19200409      10.09788646        3       0.01363929      -0.00791817      -0.10934477       0.02522143
Cu       6.42343920       5.19200409      10.09788646        3      -0.01367065      -0.00788643      -0.10939761       0.02520915
Cu       8.99281488       5.19200409      10.09788646        3      -0.00000903      -0.02281089      -0.08884661      -0.01671408
Cu      -0.00001456       1.48341895      12.22216237        2      -0.01515598      -0.00866848       0.09912235       0.02796799
Cu       2.56938632       1.48343972      12.22228812        2       0.01514089      -0.00882851       0.09890372       0.02795928
Cu       5.13868200       1.48341490      12.22229490        2       0.00020442      -0.03782040       0.02620251      -0.03827737
Cu       1.28472730       3.70860469      12.22229670        2      -0.00021881       0.01752972       0.09885277       0.02796752
Cu       3.85404919       3.70853617      12.22226661        2       0.06083838       0.03520697       0.01189915      -0.08080421
Cu       6.42343137       3.70855859      12.22219237        2      -0.06050101       0.03506804       0.01203929      -0.08080584
Cu       2.56933175       5.93372331      12.22226822        2      -0.03271147       0.01897822       0.02628695      -0.03827671
Cu       5.13873976       5.93371007      12.22221793        2       0.00003118      -0.07008699       0.01192881      -0.08080264
Cu       7.70811165       5.93376676      12.22227910        2       0.03275397       0.01870577       0.02625477      -0.03827648
Cu       0.00003176       0.00005032      14.34901118        1      -0.01036437       0.04353260       0.33226820      -0.02130443
Cu       2.56930125       0.00001804      14.34916312        1       0.01057238       0.04382704       0.33215004      -0.02134284
Cu       5.13864853       0.00002580      14.34922433        1       0.00045789      -0.00018209       0.27986332       0.06881058
Cu       1.28470809       2.22517124      14.34907163        1       0.00012213       0.00017961       0.29930546       0.05906812
Cu       3.85409307       2.22518508      14.34928516        1      -0.03280448      -0.03078886       0.33188285      -0.02131040
Cu       6.42349021       2.22507450      14.34904494        1       0.03271552      -0.03056382       0.33223725      -0.02133936
Cu       2.56959011       4.45037276      14.34913478        1      -0.04361932      -0.01313627       0.33215392      -0.02131706
Cu       5.13896751       4.45026038      14.34907842        1      -0.00081518       0.00012967       0.19942687       0.74988324
Cu       7.70816084       4.45028686      14.34912297        1       0.04333611      -0.01300738       0.33212652      -0.02134199
O        5.13896781       4.45025575      15.92780027        0       0.00004996      -0.00005075       0.11430938      -0.47065008
