29
Lattice="8.493 0.0 0.0 4.2465 6.005457892617349 0.0 0.0 0.0 20.003638595078232" Properties=species:S:1:pos:R:3:tags:I:1:forces:R:3 charge=0 spin=0 energy=-192.51673940821604 free_energy=-192.51673940821604 stress="0.053159743547439575 9.691680315881968e-05 -1.4131022908259183e-05 9.691680315881968e-05 0.020423853769898415 -0.0020003344397991896 -1.4131022908259183e-05 -0.0020003344397991896 0.00871235691010952" pbc="T T T"
Fe       0.00000000       0.00000000       8.00000000        3      -0.03703364      -0.13171218       0.44958755
Fe       2.83100000       0.00000000       8.00000000        3       0.04224364      -0.12793800       0.42454532
Fe       5.66200000       0.00000000       8.00000000        3       0.01344631      -0.08707527       0.62615877
Fe       1.41550000       2.00181930       8.00000000        3      -0.01778169      -0.15888299       0.37305021
Fe       4.24650000       2.00181930       8.00000000        3       0.03356058      -0.07829750       0.60324043
Fe       7.07750000       2.00181930       8.00000000        3      -0.02976520      -0.10558193       0.58401257
Fe       2.83100000       4.00363860       8.00000000        3       0.01439811      -0.09671995       0.52481371
Fe       5.66200000       4.00363860       8.00000000        3      -0.00064075      -0.09050789       0.45109412
Fe       8.49300000       4.00363860       8.00000000        3      -0.00211544      -0.11322285       0.44093373
Fe       0.00000000       2.00181930      10.00181930        2      -0.15285249       0.27071333      -0.56710607
Fe       2.83100000       2.00181930      10.00181930        2       0.16511981       0.33817482      -0.57981610
Fe       5.66200000       2.00181930      10.00181930        2      -0.00737814      -0.30626220      -0.53486198
Fe       1.41550000       4.00363860      10.00181930        2      -0.00571485       0.35359707      -0.38180637
Fe       4.24650000       4.00363860      10.00181930        2       0.22041936      -0.10298232      -0.42688242
Fe       7.07750000       4.00363860      10.00181930        2      -0.21214220      -0.00657635      -0.44257352
Fe       2.83100000       6.00545789      10.00181930        2       0.36337984       0.02460857      -0.38649592
Fe       5.66200000       6.00545789      10.00181930        2      -0.01443010       0.28937909      -0.74470192
Fe       8.49300000       6.00545789      10.00181930        2      -0.37076911       0.12525672      -0.43146226
Fe      -1.07173506       1.28337717      11.93995862        1       0.00727975       0.01401291       0.01201320
Fe       2.67983161      -0.62990972      11.85977206        1      -0.00298724       0.00745414      -0.00104330
Fe       5.65201710      -0.43278482      11.79936199        1       0.00453979      -0.00867907       0.00849158
Fe       1.40355052       1.46054092      11.83969633        1       0.00014460      -0.01245557       0.01728782
Fe       3.95361265       1.34934763      11.91497093        1      -0.00131692      -0.00998757       0.00372939
Fe       5.74591485       3.30929502      11.89350595        1       0.00316069       0.01845945      -0.02005647
Fe       2.83829746       3.48495862      11.82227480        1      -0.01843105       0.00836074      -0.01266973
Fe       4.46701964       5.33251001      11.87860293        1      -0.01606352       0.00846998      -0.00162879
Fe       8.47669760       3.48174565      11.82351948        1      -0.00422762      -0.00658713       0.00510387
O        5.66458529       1.23226254      13.07271547        0       0.00707216      -0.03473347      -0.02559501
H        5.63840930       1.11590653      14.04238616        0       0.01888510       0.01971562       0.03263843
