42
Lattice="7.708127040155146 0.0 0.0 3.854063520077573 6.675433832372109 0.0 0.0 0.0 22.29365937364323" Properties=species:S:1:pos:R:3:tags:I:1:forces:R:3:charge:R:1 energy=-4831.67971979969 free_energy=-4831.67971979969 stress="-0.01309286342434749 -0.00014876314971375493 0.00010392392685423681 -0.00014876314971375493 -0.014888318580683436 -3.5882461937897565e-06 0.00010392392685423681 -3.5882461937897565e-06 -0.015300582384632734" dipole="0.9143589516496321 0.21426481463278252 1.2829336204596078" pbc="T T F"
Cu      -0.00000000       0.00000000       8.00000000        4      -0.05523547      -0.02460607      -0.31441806      -0.00684138
Cu       2.56937568      -0.00000000       8.00000000        4      -0.00717604       0.03009032      -0.27936242       0.01563500
Cu       5.13875136      -0.00000000       8.00000000        4       0.06333603      -0.02448839      -0.30006838       0.00077801
Cu       1.28468784       2.22514461       8.00000000        4       0.03739543      -0.00467223      -0.31194639       0.00464536
Cu       3.85406352       2.22514461       8.00000000        4      -0.04492442      -0.01082702      -0.30140210       0.00521615
Cu       6.42343920       2.22514461       8.00000000        4       0.00857806       0.00764665      -0.29776124      -0.00948197
Cu       2.56937568       4.45028922       8.00000000        4      -0.00447021       0.03816284      -0.30759361      -0.00559359
Cu       5.13875136       4.45028922       8.00000000        4       0.01900239      -0.00432321      -0.28464547      -0.01060468
Cu       7.70812704       4.45028922       8.00000000        4      -0.01399038      -0.02102747      -0.28771829      -0.01379771
Cu       1.28468784       0.74171487      10.09788646        3      -0.03317088       0.02768400      -0.03859436      -0.02350813
Cu       3.85406352       0.74171487      10.09788646        3       0.01450876       0.05040152      -0.05475806      -0.02311118
Cu       6.42343920       0.74171487      10.09788646        3       0.01544223      -0.07005356      -0.02706793       0.00075616
Cu       2.56937568       2.96685948      10.09788646        3       0.00100037       0.01908916      -0.01276105      -0.02495645
Cu       5.13875136       2.96685948      10.09788646        3       0.00469625       0.00773283      -0.11838493       0.01543382
Cu       7.70812704       2.96685948      10.09788646        3      -0.00830979       0.00991560      -0.11120805       0.01903028
Cu       3.85406352       5.19200409      10.09788646        3      -0.08649888       0.03429386      -0.02003991      -0.00409586
Cu       6.42343920       5.19200409      10.09788646        3      -0.00908074      -0.05344674      -0.13304334       0.02670699
Cu       8.99281488       5.19200409      10.09788646        3       0.09456008       0.01009460      -0.03145046      -0.00152918
Cu      -0.00001456       1.48341895      12.22216237        2       0.04318597      -0.05661509       0.12794114      -0.02186831
Cu       2.56938632       1.48343972      12.22228812        2       0.01626897      -0.01646097       0.03424719       0.03413905
Cu       5.13868200       1.48341490      12.22229490        2      -0.05979542      -0.03809953       0.12263843      -0.01800396
Cu       1.28472730       3.70860469      12.22229670        2       0.03934796       0.02182344       0.13133785      -0.02077578
Cu       3.85404919       3.70853617      12.22226661        2      -0.03244894       0.00357398       0.11308581      -0.01614045
Cu       6.42343137       3.70855859      12.22219237        2      -0.00176796       0.03702177       0.07845446      -0.05130463
Cu       2.56933175       5.93372331      12.22226822        2       0.00945226      -0.02288021       0.05240786       0.00421422
Cu       5.13873976       5.93371007      12.22221793        2      -0.00545627       0.02915101       0.06730523      -0.02834272
Cu       7.70811165       5.93376676      12.22227910        2      -0.00129228       0.03424802       0.05968272      -0.02594564
Cu       0.00003176       0.00005032      14.34901118        1       0.02879460      -0.05883099       0.30137083      -0.05206434
Cu       2.56930125       0.00001804      14.34916312        1      -0.02532635       0.42119782       0.22200286      -0.01712344
Cu       5.13864853       0.00002580      14.34922433        1      -0.00695306      -0.03218873       0.29238737      -0.05621651
Cu       1.28470809       2.22517124      14.34907163        1       0.28194451      -0.15090691       0.27516903      -0.01771623
Cu       3.85409307       2.22518508      14.34928516        1      -0.28409461      -0.14672468       0.26287905      -0.03796263
Cu       6.42349021       2.22507450      14.34904494        1      -0.01382651      -0.40440815       0.17207448       0.16604570
Cu       2.56959011       4.45037276      14.34913478        1      -0.00007135       0.01711572       0.39901329      -0.08351764
Cu       5.13896751       4.45026038      14.34907842        1      -0.22759794       0.11832756       0.31962340       0.20730011
Cu       7.70816084       4.45028686      14.34912297        1       0.26998195       0.20578307       0.19721650       0.22813951
O        6.56065469       2.86070556      16.35601243        0      -0.00224720       0.00011505       0.01147968      -0.18859406
C        5.97845006       2.75016372      17.63908367        0       0.01262514       0.00815916       0.02448914       0.17607961
H        6.50299192       3.41249551      18.33362176        0      -0.02524532      -0.00532608      -0.01789301       0.05545655
H        4.91440656       3.00535026      17.60378909        0       0.00108052      -0.00677276      -0.00620894       0.05084475
H        6.11232899       1.70689084      17.92845996        0      -0.01836695       0.01623844       0.00367269       0.05893848
O        6.43524209       4.21632874      15.90171041        0       0.00614549       0.00479238      -0.01215299      -0.31026328
