42
Lattice="7.708127040155146 0.0 0.0 3.854063520077573 6.675433832372109 0.0 0.0 0.0 22.29365937364323" Properties=species:S:1:pos:R:3:tags:I:1:forces:R:3:charge:R:1 energy=-4831.138231264686 free_energy=-4831.138231264686 stress="-0.015648470957412893 4.977278141385821e-05 0.0008271624586208612 4.977278141385821e-05 -0.015025700780086828 0.0008691886069149344 0.0008271624586208612 0.0008691886069149344 -0.020530173508408016" dipole="1.2046039058832658 0.6745313166632003 1.7552639191755748" pbc="T T F"
Cu      -0.00000000       0.00000000       8.00000000        4      -0.07723168      -0.06444952      -0.32117321      -0.00184934
Cu       2.56937568      -0.00000000       8.00000000        4       0.05317645       0.04813150      -0.30866789       0.01265454
Cu       5.13875136      -0.00000000       8.00000000        4       0.02485917      -0.07716239      -0.34260478      -0.01228760
Cu       1.28468784       2.22514461       8.00000000        4       0.04548923      -0.02799072      -0.27679887       0.01207238
Cu       3.85406352       2.22514461       8.00000000        4      -0.05085609      -0.03809719      -0.28992091       0.00185501
Cu       6.42343920       2.22514461       8.00000000        4       0.00662904       0.04727814      -0.27394592      -0.00359533
Cu       2.56937568       4.45028922       8.00000000        4       0.01036976       0.11007879      -0.29801438      -0.00376790
Cu       5.13875136       4.45028922       8.00000000        4       0.01214910      -0.01365105      -0.27867306      -0.01542799
Cu       7.70812704       4.45028922       8.00000000        4      -0.02114460       0.02793716      -0.29025978      -0.02136067
Cu       1.28468784       0.74171487      10.09788646        3      -0.02011976       0.05613777      -0.02714674      -0.02713673
Cu       3.85406352       0.74171487      10.09788646        3       0.00688250       0.01658624      -0.04620651      -0.02489177
Cu       6.42343920       0.74171487      10.09788646        3       0.01142298      -0.07051782      -0.02323547      -0.00486682
Cu       2.56937568       2.96685948      10.09788646        3       0.01546813      -0.05131463      -0.04610926      -0.02017992
Cu       5.13875136       2.96685948      10.09788646        3       0.04909792       0.01789870      -0.11637194       0.02751471
Cu       7.70812704       2.96685948      10.09788646        3      -0.06592946      -0.00526002      -0.09642197       0.01772514
Cu       3.85406352       5.19200409      10.09788646        3      -0.07696867       0.03295543      -0.06936952      -0.00011468
Cu       6.42343920       5.19200409      10.09788646        3       0.02485812      -0.09370690      -0.09222531       0.02601227
Cu       8.99281488       5.19200409      10.09788646        3       0.04722881       0.06556782      -0.04997684      -0.00009618
Cu      -0.00001456       1.48341895      12.22216237        2       0.02888879      -0.03556210       0.09272318      -0.01312552
Cu       2.56938632       1.48343972      12.22228812        2       0.00089600       0.00826169       0.09420093       0.04896036
Cu       5.13868200       1.48341490      12.22229490        2      -0.03193852      -0.04964800       0.05554505      -0.02739116
Cu       1.28472730       3.70860469      12.22229670        2       0.04079498       0.04812890      -0.00969058      -0.02538605
Cu       3.85404919       3.70853617      12.22226661        2      -0.03294465       0.06982540       0.09244284      -0.02782836
Cu       6.42343137       3.70855859      12.22219237        2       0.00509992       0.03461996       0.00297205      -0.05647161
Cu       2.56933175       5.93372331      12.22226822        2       0.00418633      -0.02866686      -0.01498455       0.00531480
Cu       5.13873976       5.93371007      12.22221793        2      -0.06975558       0.01535566       0.00168496      -0.03488273
Cu       7.70811165       5.93376676      12.22227910        2       0.07155081      -0.00601545       0.03461893      -0.03739330
Cu       0.00003176       0.00005032      14.34901118        1      -0.05901994      -0.00656746       0.34200940      -0.07780318
Cu       2.56930125       0.00001804      14.34916312        1       0.02695749       0.34104457       0.29884448      -0.04441032
Cu       5.13864853       0.00002580      14.34922433        1       0.04605806      -0.14568163       0.29627618      -0.06857242
Cu       1.28470809       2.22517124      14.34907163        1       0.19511736      -0.20496086       0.28685400      -0.05480418
Cu       3.85409307       2.22518508      14.34928516        1      -0.30811692      -0.19146646       0.22770659       0.01546183
Cu       6.42349021       2.22507450      14.34904494        1       0.22879216      -0.64023426      -0.10178975       0.15280360
Cu       2.56959011       4.45037276      14.34913478        1      -0.05443216       0.19617034       0.28643846      -0.07821404
Cu       5.13896751       4.45026038      14.34907842        1      -0.57772447       0.56763753      -0.27936835       0.24290667
Cu       7.70816084       4.45028686      14.34912297        1       0.80455119       0.14265925      -0.19023371       0.26066746
O        5.56561049       3.08063156      16.13769093        0       0.19675101      -0.08046941       0.23857682      -0.18110035
C        5.66094049       3.23957529      17.53056779        0      -0.01107567      -0.09357374       0.26969473       0.17430452
H        6.72318380       3.13373858      17.76106086        0      -0.06679773      -0.11339082       0.47633829       0.05992773
H        5.32345350       4.25098025      17.77265729        0      -0.09063090      -0.12119584       0.26445561       0.05491634
H        5.05209727       2.45822344      17.97064022        0      -0.10670732      -0.05016314       0.25652050       0.05933275
O        6.54454904       4.04362836      15.69700432        0      -0.23588119       0.36347142       0.22528629      -0.30947195
