3
Lattice="21.6254485609262 0.0 0.0 0.0 20.54986053633348 0.0 0.0 0.0 20.0" Properties=species:S:1:pos:R:3:forces:R:3 charge=0 spin=1 energy=-2079.8448328652066 free_energy=-2079.8448328652066 stress="8.010734018171206e-05 2.214624004182042e-07 3.811203436177024e-11 2.214624004182042e-07 -2.2593687390326522e-05 1.08694531240211e-12 3.811203436177024e-11 1.08694531240211e-12 0.0" pbc="T T T"
O       10.81211348      10.55026925      10.00000000      -0.00277648       0.36499578      -0.00000004
H       10.02076591       9.99959874      10.00000000       0.45107746      -0.18132499       0.00000002
H       11.60406921      10.00057834      10.00000000      -0.44830105      -0.18367079       0.00000002
