31
Lattice="8.493 0.0 0.0 4.2465 6.005457892617349 0.0 0.0 0.0 20.003638595078232" Properties=species:S:1:pos:R:3:initial_charges:R:1:tags:I:1:forces:R:3 charge=0 spin=0 energy=-204.85451657763227 free_energy=-204.85451657763227 stress="0.05006321519613266 -3.516240758472122e-05 -0.00017021989333443344 -3.516240758472122e-05 0.018208207562565804 -0.0017676654970273376 -0.00017021989333443344 -0.0017676654970273376 0.009281240403652191" dipole="2.773177177783437 0.5454227539493668 1.7546970608542498" pbc="T T T"
Fe       0.00000000       0.00000000       8.00000000      -0.00585930        3      -0.00924208      -0.08963621       0.59719926
Fe       2.83100000       0.00000000       8.00000000      -0.00589662        3      -0.06930984      -0.10108719       0.44372493
Fe       5.66200000       0.00000000       8.00000000      -0.00595400        3       0.07004050      -0.12327364       0.41764072
Fe       1.41550000       2.00181930       8.00000000      -0.00648149        3      -0.07725345      -0.08448179       0.60318655
Fe       4.24650000       2.00181930       8.00000000      -0.00628778        3      -0.01548453      -0.12157299       0.45109200
Fe       7.07750000       2.00181930       8.00000000      -0.00513724        3       0.05262681      -0.06821169       0.65076047
Fe       2.83100000       4.00363860       8.00000000      -0.00658322        3       0.01500809      -0.07545105       0.54208535
Fe       5.66200000       4.00363860       8.00000000      -0.00583548        3      -0.04128155      -0.08150901       0.44765157
Fe       8.49300000       4.00363860       8.00000000      -0.00541990        3      -0.01817399      -0.08362042       0.48288912
Fe       0.00000000       2.00181930      10.00181930       0.00529059        2       0.08564424      -0.26810122      -0.23195422
Fe       2.83100000       2.00181930      10.00181930       0.00379498        2      -0.23516814       0.43012932      -0.84190845
Fe       5.66200000       2.00181930      10.00181930       0.00194578        2       0.09682398       0.16763985      -0.64308047
Fe       1.41550000       4.00363860      10.00181930       0.00263472        2      -0.17305315      -0.18047346      -0.53600669
Fe       4.24650000       4.00363860      10.00181930       0.00049787        2       0.19008744       0.23407140      -0.24467795
Fe       7.07750000       4.00363860      10.00181930      -0.00012509        2      -0.03044037       0.03761571      -0.74227524
Fe       2.83100000       6.00545789      10.00181930       0.00145833        2      -0.03864321      -0.05672651      -0.24876602
Fe       5.66200000       6.00545789      10.00181930       0.00527567        2       0.08696508       0.13804545      -0.19871323
Fe       8.49300000       6.00545789      10.00181930       0.00379152        2       0.09876063       0.28321168      -0.89735001
Fe      -0.02807500      -0.42139649      11.87460519       0.03652402        1       0.01283171      -0.00370332       0.00511737
Fe       3.01699623      -0.60166361      11.82334307       0.01536678        1      -0.00024354       0.01156073       0.00350745
Fe       5.43280856      -0.70115018      11.87736181      -0.01164946        1       0.01147368       0.00989389      -0.00773255
Fe       1.71665232       1.29230147      12.01887266       0.05889344        1      -0.01441150       0.01129331       0.02028394
Fe       4.15023475       1.45424365      11.83179568      -0.00061698        1       0.00433286       0.01609751      -0.00193343
Fe       6.57212049       1.24266228      11.94199075       0.02931026        1       0.00611350      -0.02081694      -0.02537913
Fe       2.81874247       3.48654581      11.79807396      -0.00534407        1      -0.01851401       0.00966895      -0.00290023
Fe       5.73050057       3.41666168      11.86411095       0.01229157        1       0.02199729      -0.00213744      -0.00243107
Fe       8.24685911       3.33652543      11.91992787       0.01965975        1      -0.00782399       0.00400855       0.01816740
N        7.29327695       2.41968085      13.28586687      -0.32388580        0       0.04311310       0.00662256      -0.01405316
H        8.19514379       1.53347564      13.52468021       0.38012233        0      -0.02265534      -0.01306398      -0.01372258
H        6.88579831       2.80920537      14.14786162       0.25328325        0      -0.02759054       0.00236494      -0.00986062
O        0.54243300       0.66265891      13.30115794      -0.43506443        0       0.00347003       0.01164324      -0.02056106
