28
Lattice="8.493 0.0 0.0 4.2465 6.005457892617349 0.0 0.0 0.0 20.003638595078232" Properties=species:S:1:pos:R:3:tags:I:1:forces:R:3 charge=0 spin=0 energy=-191.0502381983381 free_energy=-191.0502381983381 stress="0.05107232555747032 -0.00018227436521556228 -6.756964285159484e-05 -0.00018227436521556228 0.020267153158783913 0.001952612423337996 -6.756964285159484e-05 0.001952612423337996 0.009015515446662903" pbc="T T T"
Fe       0.00000000       0.00000000       8.00000000        3       0.02258787       0.12687476       0.43876189
Fe       2.83100000       0.00000000       8.00000000        3      -0.00636696       0.09452053       0.62022132
Fe       5.66200000       0.00000000       8.00000000        3      -0.02150256       0.12949112       0.44120106
Fe       1.41550000       2.00181930       8.00000000        3      -0.03888353       0.10873086       0.47646183
Fe       4.24650000       2.00181930       8.00000000        3       0.02439764       0.10318951       0.44996372
Fe       7.07750000       2.00181930       8.00000000        3       0.00842014       0.08430174       0.48975331
Fe       2.83100000       4.00363860       8.00000000        3       0.01473422       0.13360985       0.41195118
Fe       5.66200000       4.00363860       8.00000000        3       0.07024031       0.08498719       0.63166928
Fe       8.49300000       4.00363860       8.00000000        3      -0.08788548       0.06696147       0.64525676
Fe       0.00000000       2.00181930      10.00181930        2      -0.17119858       0.08280757      -0.36683041
Fe       2.83100000       2.00181930      10.00181930        2      -0.01944829      -0.51659560      -0.49802399
Fe       5.66200000       2.00181930      10.00181930        2       0.16923440       0.09566528      -0.36408865
Fe       1.41550000       4.00363860      10.00181930        2      -0.06277584      -0.30684868      -0.66622424
Fe       4.24650000       4.00363860      10.00181930        2       0.01674716      -0.29787576      -0.66025424
Fe       7.07750000       4.00363860      10.00181930        2       0.03400242       0.30241561      -0.75117946
Fe       2.83100000       6.00545789      10.00181930        2       0.01322696      -0.21138270      -0.54072821
Fe       5.66200000       6.00545789      10.00181930        2      -0.33857158       0.00963918      -0.38405907
Fe       8.49300000       6.00545789      10.00181930        2       0.35025671      -0.04061229      -0.38020536
Fe      -0.13759877       0.66177529      11.86142089        1      -0.00120225      -0.00746803       0.00551826
Fe       2.83554003       0.45299144      11.84149257        1      -0.00194293      -0.03158620       0.01428626
Fe       5.78927281       0.65074188      11.85147313        1       0.01112528      -0.00225137       0.00343996
Fe       1.46281162       2.53691440      11.81973618        1       0.00625564       0.00097323       0.00745942
Fe       4.19139026       2.53118178      11.82205039        1       0.01296361       0.01171061       0.00479683
Fe       7.06206306       2.72869964      11.93060005        1       0.00349619      -0.04405014      -0.01264969
Fe       2.83694055       4.58864049      11.85862949        1      -0.00465648      -0.01882380      -0.00654740
Fe       5.33591969       4.66643495      11.94032508        1       0.01715369       0.00922945      -0.01263646
Fe       8.81275900       4.65987273      11.93584110        1      -0.01821885       0.00047018      -0.01752775
N        7.07660812       4.53126275      12.49138882        0      -0.00218913       0.03191627       0.02021396
