28
Lattice="8.493 0.0 0.0 4.2465 6.005457892617349 0.0 0.0 0.0 20.003638595078232" Properties=species:S:1:pos:R:3:tags:I:1:forces:R:3 charge=0 spin=0 energy=-183.10818819711434 free_energy=-183.10818819711434 stress="0.045062724500894547 -0.00033230360713787377 -2.965562551082712e-08 -0.00033230360713787377 0.030890369787812233 2.344582483715385e-08 -2.965562551082712e-08 2.344582483715385e-08 0.00873870961368084" pbc="T T T"
Fe       0.00000000       0.00000000       8.00000000        3      -0.06190672      -0.03313577       0.53811175
Fe       2.83100000       0.00000000       8.00000000        3       0.00326619       0.06841155       0.26483953
Fe       5.66200000       0.00000000       8.00000000        3       0.07912789      -0.05664824       0.60243803
Fe       1.41550000       2.00181930       8.00000000        3      -0.01885799      -0.00291387       0.43315119
Fe       4.24650000       2.00181930       8.00000000        3       0.01885346       0.00291349       0.43314707
Fe       7.07750000       2.00181930       8.00000000        3       0.00000244      -0.00000217       0.71800345
Fe       2.83100000       4.00363860       8.00000000        3      -0.00326868      -0.06841262       0.26484475
Fe       5.66200000       4.00363860       8.00000000        3       0.06190969       0.03313353       0.53810948
Fe       8.49300000       4.00363860       8.00000000        3      -0.07912535       0.05664855       0.60243589
Fe       0.00000000       2.00181930      10.00181930        2       0.87968868       0.02516935      -0.19718328
Fe       2.83100000       2.00181930      10.00181930        2      -0.00000932       0.00000959      -0.98324716
Fe       5.66200000       2.00181930      10.00181930        2      -0.87967885      -0.02516524      -0.19723965
Fe       1.41550000       4.00363860      10.00181930        2       0.24262302       0.03461126      -0.92251545
Fe       4.24650000       4.00363860      10.00181930        2      -0.17861915      -0.00797881      -0.90708178
Fe       7.07750000       4.00363860      10.00181930        2      -0.04726378      -0.07563750       0.35335782
Fe       2.83100000       6.00545789      10.00181930        2       0.04729171       0.07563760       0.35335523
Fe       5.66200000       6.00545789      10.00181930        2       0.17860784       0.00793607      -0.90704405
Fe       8.49300000       6.00545789      10.00181930        2      -0.24265786      -0.03455609      -0.92255443
Fe       0.26846401       0.16007547      11.86584863        1      -0.00660657       0.00204020      -0.00562454
Fe       2.83965808      -0.41499616      11.86021908        1       0.00168339      -0.00146212      -0.00336318
Fe       5.40811652       0.18922230      11.86092443        1      -0.00510052       0.00140758       0.00022315
Fe       1.68321768       2.00258979      11.95703059        1      -0.00937962      -0.00271749      -0.01056259
Fe       3.97879494       2.00104435      11.95702821        1       0.00939970       0.00271270      -0.01056840
Fe       7.07749457       2.00181806      11.78564154        1      -0.00000816      -0.00000580      -0.02827967
Fe       2.82235186       4.41863260      11.86021897        1      -0.00167372       0.00146132      -0.00336458
Fe       5.39353235       3.84358209      11.86584765        1       0.00660547      -0.00202155      -0.00562874
Fe       8.74688265       3.81438994      11.86092622        1       0.00509578      -0.00144094       0.00022553
H        7.07749977       2.00182849      13.32560686        0       0.00000101       0.00000553       0.00201489
