41
Lattice="7.708127040155146 0.0 0.0 3.854063520077573 6.675433832372109 0.0 0.0 0.0 22.29365937364323" Properties=species:S:1:pos:R:3:tags:I:1:forces:R:3:charge:R:1 energy=-4533.730522884468 free_energy=-4533.730522884468 stress="-0.014742474709770302 0.0018512852090583432 0.0005300596931385126 0.0018512852090583432 -0.01673604953932452 -0.0010098171286162913 0.0005300596931385126 -0.0010098171286162913 -0.019713561835272668" dipole="1.0053398113979088 0.7829322140138015 2.1297084409734683" pbc="T T F"
Cu       0.00000000       0.00000000       8.00000000        4      -0.06519132      -0.03353683      -0.32131511      -0.00193677
Cu       2.56937568      -0.00000000       8.00000000        4       0.01896613      -0.02367922      -0.31892337      -0.01020577
Cu       5.13875136      -0.00000000       8.00000000        4       0.03469944      -0.00665752      -0.33927432      -0.01719893
Cu       1.28468784       2.22514461       8.00000000        4      -0.07159150       0.01788136      -0.30536186       0.01360067
Cu       3.85406352       2.22514461       8.00000000        4       0.07992523      -0.03409770      -0.27119757       0.01057352
Cu       6.42343920       2.22514461       8.00000000        4      -0.01888065      -0.00407371      -0.34228281      -0.02629576
Cu       2.56937568       4.45028922       8.00000000        4      -0.02141735       0.09432800      -0.28072046      -0.00422956
Cu       5.13875136       4.45028922       8.00000000        4      -0.00159745      -0.00947333      -0.28590841      -0.02981975
Cu       7.70812704       4.45028922       8.00000000        4       0.01101447      -0.01684187      -0.29743139      -0.00137256
Cu       1.28468784       0.74171487      10.09788646        3       0.03927471       0.00501898       0.01416185      -0.02470509
Cu       3.85406352       0.74171487      10.09788646        3      -0.02968342       0.00229448      -0.01344585      -0.00529780
Cu       6.42343920       0.74171487      10.09788646        3       0.01884366       0.02066029      -0.01059898      -0.00690843
Cu       2.56937568       2.96685948      10.09788646        3      -0.02479343      -0.05847963      -0.03366870      -0.01489312
Cu       5.13875136       2.96685948      10.09788646        3       0.03720036      -0.03042435      -0.13356608       0.03874123
Cu       7.70812704       2.96685948      10.09788646        3       0.01603344      -0.01632255      -0.04502873      -0.01521744
Cu       3.85406352       5.19200409      10.09788646        3       0.03793441       0.05701065      -0.08150110       0.03259019
Cu       6.42343920       5.19200409      10.09788646        3       0.00735032       0.04922261      -0.07444315       0.02687651
Cu       8.99281488       5.19200409      10.09788646        3      -0.01275539       0.01824167      -0.01887118      -0.00022626
Cu      -0.00001456       1.48341895      12.22216237        2      -0.04525284      -0.00987645       0.03337594       0.03320301
Cu       2.56938632       1.48343972      12.22228812        2      -0.01401254      -0.01284178       0.07400176       0.03919582
Cu       5.13868200       1.48341490      12.22229490        2       0.01185752      -0.03718093       0.00536502      -0.01653147
Cu       1.28472730       3.70860469      12.22229670        2      -0.02074812       0.00292984       0.03749222       0.03293230
Cu       3.85404919       3.70853617      12.22226661        2      -0.02112430       0.01775041       0.04392393      -0.03774346
Cu       6.42343137       3.70855859      12.22219237        2      -0.00437353      -0.03054858      -0.03009268      -0.03445492
Cu       2.56933175       5.93372331      12.22226822        2      -0.01584770       0.00648922      -0.00947925      -0.02188867
Cu       5.13873976       5.93371007      12.22221793        2      -0.05437602       0.01964484       0.07614769      -0.04322817
Cu       7.70811165       5.93376676      12.22227910        2       0.03147176       0.01068557       0.04693912      -0.01155502
Cu       0.00003176       0.00005032      14.34901118        1      -0.09297214       0.15479862       0.28548328      -0.05105715
Cu       2.56930125       0.00001804      14.34916312        1       0.08865842       0.21378607       0.26054699      -0.05520130
Cu       5.13864853       0.00002580      14.34922433        1       0.00212430      -0.13455999       0.37300762      -0.07401028
Cu       1.28470809       2.22517124      14.34907163        1       0.12466470      -0.06838583       0.33776523      -0.07992209
Cu       3.85409307       2.22518508      14.34928516        1      -0.31994210      -0.34247169       0.08665101      -0.05384439
Cu       6.42349021       2.22507450      14.34904494        1       0.08773519      -0.08584653       0.38519356      -0.05655685
Cu       2.56959011       4.45037276      14.34913478        1      -0.22339317       0.04355018       0.27111452      -0.05715321
Cu       5.13896751       4.45026038      14.34907842        1      -0.20403254       0.44966052      -2.98156016       0.40008979
Cu       7.70816084       4.45028686      14.34912297        1       0.44231597       0.11596891       0.10765323      -0.05331517
O        5.13809303       4.45137179      16.03818062        0     -91.39144909     158.30770229     -29.77207717      -0.47666380
C        5.83783472       3.23932905      16.26611950        0      91.34257987    -158.24041364      29.65639323       0.09897220
H        5.22015183       2.49049381      16.76626082        0      -0.06704516      -0.08207835       0.05648851       0.06182271
H        6.79456567       3.39963212      16.76582528        0       0.12144642       0.02101136       0.06232376       0.06339821
H        5.33466185       4.11184683      17.10624682        0      -0.00077190      -0.00104479      -0.00157336       0.42943703
