29
Lattice="8.493 0.0 0.0 4.2465 6.005457892617349 0.0 0.0 0.0 20.003638595078232" Properties=species:S:1:pos:R:3:tags:I:1:forces:R:3:charge:R:1 charge=0 spin=0 energy=-2458.308912176262 free_energy=-2458.308912176262 stress="0.014245319307636587 -0.001614982379703993 -4.4848083745344184e-05 -0.001614982379703993 0.0028176742524134686 0.0014552903507071158 -4.4848083745344184e-05 0.0014552903507071158 -0.006290773095828823" dipole="-0.4839696334728649 0.024056314597617458 0.650287854934104" pbc="T T T"
Fe       0.00000000       0.00000000       8.00000000        3       0.00579420       0.02875396      -0.07202445      -0.00107454
Fe       2.83100000       0.00000000       8.00000000        3      -0.02732682      -0.04767787      -0.03884781      -0.00029658
Fe       5.66200000       0.00000000       8.00000000        3       0.04100229       0.02631038      -0.05219066      -0.00041927
Fe       1.41550000       2.00181930       8.00000000        3      -0.08872525       0.04584840       0.06246643      -0.00103462
Fe       4.24650000       2.00181930       8.00000000        3       0.01069040      -0.02844530      -0.16787649      -0.00090133
Fe       7.07750000       2.00181930       8.00000000        3       0.03889789       0.00640588       0.03659254      -0.00115840
Fe       2.83100000       4.00363860       8.00000000        3       0.09634319       0.04901434       0.07051028      -0.00119317
Fe       5.66200000       4.00363860       8.00000000        3      -0.12560518      -0.00142061      -0.02246584      -0.00107493
Fe       8.49300000       4.00363860       8.00000000        3      -0.01318820       0.08093551      -0.06546309      -0.00121604
Fe       0.00000000       2.00181930      10.00181930        2      -0.24240219       0.13008149      -0.10066599       0.00514153
Fe       2.83100000       2.00181930      10.00181930        2       0.49351567       0.02670024      -0.71280268       0.00106656
Fe       5.66200000       2.00181930      10.00181930        2      -0.13460012       0.01094854      -0.57927242       0.00283591
Fe       1.41550000       4.00363860      10.00181930        2      -0.14654995      -0.23137255      -0.94289348       0.00305283
Fe       4.24650000       4.00363860      10.00181930        2       0.26228522      -0.13184058       0.27177793      -0.00068112
Fe       7.07750000       4.00363860      10.00181930        2      -0.16839618      -0.15046762      -1.04033823       0.00669070
Fe       2.83100000       6.00545789      10.00181930        2      -0.58640989      -0.13490717       0.08315717      -0.00056329
Fe       5.66200000       6.00545789      10.00181930        2       0.55119329      -0.01313078       0.17699549      -0.00018194
Fe       8.49300000       6.00545789      10.00181930        2      -0.15726137      -0.13802851      -1.15366694       0.00371766
Fe      -0.00001286      -0.00009696      11.75033812        1      -0.10909734      -0.36123808       0.05699210       0.02444914
Fe       3.07159637       0.03099151      11.91004278        1      -0.06431141       0.40425712       0.40914167       0.02239567
Fe       5.42143221      -0.03111893      11.91005365        1       0.08039463       0.09131563       0.11165622       0.02110295
Fe       1.65226266       1.83399823      11.85374402        1       0.16150726      -0.45969925       1.09385633       0.03772828
Fe       4.20554567       2.38623638      11.86516243        1       0.02682609       0.61849316      -0.14557786       0.02519742
Fe       6.79319282       1.77884592      11.98628905        1       0.03383354       1.36630418       2.67118552       0.07860213
Fe       2.59420062       4.17122996      11.85375328        1       0.48168938       0.04059495       0.38876575       0.02801584
Fe       5.94626350       4.22678979      11.98607328        1       0.45320803      -0.78784242       1.64073231       0.05920890
Fe       8.53396109       3.61914660      11.86517145        1      -0.43017444       1.20420652      -0.08678678       0.08643459
O        6.84982428       2.99262361      13.17457176        0      -0.00292453      -0.00119545      -0.00373823      -0.21341593
O        8.71752987       2.99089070      13.20915639        0      -0.00077692      -0.00919982       0.00994800      -0.18242894
