41
Lattice="7.708127040155146 0.0 0.0 3.854063520077573 6.675433832372109 0.0 0.0 0.0 22.29365937364323" Properties=species:S:1:pos:R:3:tags:I:1:forces:R:3:charge:R:1 energy=-4706.875140187343 free_energy=-4706.875140187343 stress="-0.013821812285114027 -2.876128832771632e-06 7.269408689112298e-06 -2.876128832771632e-06 -0.013927226538567346 -0.00010540476364046546 7.269408689112298e-06 -0.00010540476364046546 -0.014678321991539078" dipole="1.0770752538939046 0.6229465205324263 1.0968031421137365" pbc="T T F"
Cu      -0.00000000       0.00000000       8.00000000        4      -0.03007086      -0.01769586      -0.29632754      -0.00226522
Cu       2.56937568      -0.00000000       8.00000000        4       0.00000200       0.02094119      -0.29354459       0.00862742
Cu       5.13875136       0.00000000       8.00000000        4       0.03007064      -0.01763196      -0.29629740      -0.00225276
Cu       1.28468784       2.22514461       8.00000000        4       0.01776528      -0.00996335      -0.29293570       0.00868796
Cu       3.85406352       2.22514461       8.00000000        4      -0.01781054      -0.00998618      -0.29299667       0.00867745
Cu       6.42343920       2.22514461       8.00000000        4       0.00004270      -0.00212897      -0.28115108      -0.01180367
Cu       2.56937568       4.45028922       8.00000000        4       0.00005950       0.03467633      -0.29670824      -0.00237357
Cu       5.13875136       4.45028922       8.00000000        4      -0.00271959       0.00087662      -0.28155309      -0.01149398
Cu       7.70812704       4.45028922       8.00000000        4       0.00266021       0.00079763      -0.28151112      -0.01151454
Cu       1.28468784       0.74171487      10.09788646        3      -0.03187124      -0.02010915      -0.04934968      -0.02147661
Cu       3.85406352       0.74171487      10.09788646        3       0.03197829      -0.02002732      -0.04918450      -0.02149913
Cu       6.42343920       0.74171487      10.09788646        3      -0.00014584      -0.04404531      -0.03575118      -0.00125261
Cu       2.56937568       2.96685948      10.09788646        3       0.00008668       0.03738404      -0.05027186      -0.02124852
Cu       5.13875136       2.96685948      10.09788646        3       0.03122294       0.01797838      -0.10538219       0.01909880
Cu       7.70812704       2.96685948      10.09788646        3      -0.03129437       0.01814330      -0.10557524       0.01914327
Cu       3.85406352       5.19200409      10.09788646        3      -0.03739825       0.02267668      -0.03512706      -0.00157915
Cu       6.42343920       5.19200409      10.09788646        3       0.00004860      -0.03436528      -0.10371152       0.01853490
Cu       8.99281488       5.19200409      10.09788646        3       0.03730681       0.02276088      -0.03511751      -0.00156408
Cu      -0.00001456       1.48341895      12.22216237        2      -0.00035798      -0.06881276       0.09574819      -0.02367977
Cu       2.56938632       1.48343972      12.22228812        2      -0.00011829       0.00016233       0.04529221       0.03917714
Cu       5.13868200       1.48341490      12.22229490        2       0.00070155      -0.06890600       0.09560445      -0.02364788
Cu       1.28472730       3.70860469      12.22229670        2       0.05991889       0.03370217       0.09542081      -0.02354287
Cu       3.85404919       3.70853617      12.22226661        2      -0.06006075       0.03391991       0.09564605      -0.02349789
Cu       6.42343137       3.70855859      12.22219237        2       0.00023843      -0.00136264      -0.01853880      -0.03735625
Cu       2.56933175       5.93372331      12.22226822        2       0.00010876       0.00013164      -0.00170391       0.00673778
Cu       5.13873976       5.93371007      12.22221793        2      -0.05996555       0.03506800       0.09699344      -0.02299408
Cu       7.70811165       5.93376676      12.22227910        2       0.05995813       0.03475597       0.09693587      -0.02300381
Cu       0.00003176       0.00005032      14.34901118        1      -0.01703693      -0.01151708       0.35834923      -0.06305720
Cu       2.56930125       0.00001804      14.34916312        1       0.00032610       0.24151646       0.26218828      -0.02608231
Cu       5.13864853       0.00002580      14.34922433        1       0.01734710      -0.01127801       0.35806963      -0.06315967
Cu       1.28470809       2.22517124      14.34907163        1       0.21035431      -0.12069830       0.26197217      -0.02637662
Cu       3.85409307       2.22518508      14.34928516        1      -0.21023393      -0.12091423       0.26162054      -0.02636768
Cu       6.42349021       2.22507450      14.34904494        1      -0.00019674      -0.21968192       0.24837867       0.18802525
Cu       2.56959011       4.45037276      14.34913478        1      -0.00055141       0.02070560       0.35707823      -0.06175676
Cu       5.13896751       4.45026038      14.34907842        1      -0.18399690       0.10694904       0.25181892       0.18249868
Cu       7.70816084       4.45028686      14.34912297        1       0.18407955       0.10715545       0.25150566       0.18284436
O        6.42400906       3.70036038      15.77299066        0       0.00391812      -0.06502584       0.28416343      -0.43643043
C        6.42383585       3.70336778      17.19196213        0      -0.00147054       0.04971089       0.32250430       0.17758118
H        7.29920540       3.20654050      17.61443516        0       0.21142520      -0.14714511      -0.25726144       0.04374497
H        6.42340460       4.71798044      17.58706492        0       0.00133232       0.32234161      -0.13108226       0.04412480
H        5.54774071       3.20679576      17.61261224        0      -0.21565239      -0.15105886      -0.24820752       0.04377309
