29
Lattice="8.493 0.0 0.0 4.2465 6.005457892617349 0.0 0.0 0.0 20.003638595078232" Properties=species:S:1:pos:R:3:tags:I:1:forces:R:3:charge:R:1 charge=0 spin=0 energy=-2271.055273479253 free_energy=-2271.055273479253 stress="0.017584587213208554 0.0006081409600532783 0.0012161257839052935 0.0006081409600532783 0.005601530327872948 -0.0014307503267873506 0.0012161257839052935 -0.0014307503267873506 -0.004097184028321904" dipole="-0.1792021125338726 0.1490747823003364 0.736655184258522" pbc="T T T"
Fe       0.00000000       0.00000000       8.00000000        3       0.08832978      -0.07136294      -0.09910515      -0.00227899
Fe       2.83100000       0.00000000       8.00000000        3      -0.12294765      -0.01751483      -0.00574124      -0.00414904
Fe       5.66200000       0.00000000       8.00000000        3       0.08162009       0.02078846      -0.03883538      -0.00307903
Fe       1.41550000       2.00181930       8.00000000        3       0.03535214      -0.08574734      -0.08399430      -0.00259008
Fe       4.24650000       2.00181930       8.00000000        3      -0.10759539      -0.03564449      -0.01420494      -0.00338136
Fe       7.07750000       2.00181930       8.00000000        3       0.01861443       0.00317245      -0.03421769      -0.00448760
Fe       2.83100000       4.00363860       8.00000000        3       0.04502555      -0.05473860      -0.08716171      -0.00185995
Fe       5.66200000       4.00363860       8.00000000        3      -0.05085692      -0.01336501      -0.04717687      -0.00373452
Fe       8.49300000       4.00363860       8.00000000        3       0.06769857       0.01627201      -0.05819456      -0.00379612
Fe       0.00000000       2.00181930      10.00181930        2      -0.15198702       0.48564202       0.01173596       0.00325319
Fe       2.83100000       2.00181930      10.00181930        2      -0.13700082      -0.25435642       0.01560767       0.00110099
Fe       5.66200000       2.00181930      10.00181930        2       0.39010319      -0.19916532      -0.93962951       0.00778176
Fe       1.41550000       4.00363860      10.00181930        2       0.08386729       0.40429859      -0.59091497       0.00361261
Fe       4.24650000       4.00363860      10.00181930        2      -0.02422698      -0.25501401      -0.09338161       0.00538285
Fe       7.07750000       4.00363860      10.00181930        2       0.02394643      -0.11954510      -0.54836223       0.00450401
Fe       2.83100000       6.00545789      10.00181930        2      -0.16284067       0.60728909      -0.31619193       0.00100041
Fe       5.66200000       6.00545789      10.00181930        2      -0.09544381      -0.30651338       0.42258593       0.00060132
Fe       8.49300000       6.00545789      10.00181930        2       0.51404339      -0.29574799      -1.09568469       0.00392951
Fe      -0.39294215      -0.64081239      11.89914594        1       0.12284347      -0.07094761       0.71518796       0.00210087
Fe       3.15129007       0.29900728      11.82621820        1      -0.79448369      -0.09883894       0.59638368       0.01401242
Fe       5.67580923      -0.51311943      11.82642584        1       0.10535909      -0.04239038       0.21819105       0.00806515
Fe       1.05372265       1.35349095      11.91274636        1      -0.01000623       0.13555360       0.08795181       0.00039501
Fe       4.55718257       2.19495814      11.91059787        1       0.19151363       0.13447274       2.46057030       0.06589731
Fe       7.10981515       1.49918791      11.89013415        1       0.04139964       0.06510219      -0.12463786       0.03132010
Fe       2.47355433       3.34496955      11.89808500        1       0.11619594       0.08957547       1.03640738      -0.02781786
Fe       5.98591592       4.41079687      11.91895696        1      -0.25079680      -0.25618754       1.23747094       0.05131464
Fe       8.55500895       3.53463000      11.82006576        1       0.07955549      -0.23303221       0.07041159       0.00721186
O        5.17748992       2.89895931      13.17996394        0      -0.00025286      -0.00048517      -0.00084080      -0.32629025
H        3.40004223       3.73603232      13.28660304        0      -0.00037889       0.00015275      -0.00029150       0.17198079
