30
Lattice="8.493 0.0 0.0 4.2465 6.005457892617349 0.0 0.0 0.0 20.003638595078232" Properties=species:S:1:pos:R:3:tags:I:1:forces:R:3 charge=0 spin=0 energy=-197.78385360734478 free_energy=-197.78385360734478 stress="0.05454863980412483 0.0007757144048810005 0.00032935579656623304 0.0007757144048810005 0.018743757158517838 0.002168300561606884 0.00032935579656623304 0.002168300561606884 0.008461563847959042" pbc="T T T"
Fe      -0.00000000      -0.00000000       8.00000000        3      -0.00314681       0.12169186       0.40084699
Fe       2.83100000       0.00000000       8.00000000        3       0.04550582       0.11490806       0.49982911
Fe       5.66200000       0.00000000       8.00000000        3       0.01741185       0.10041274       0.49818510
Fe       1.41550000       2.00181930       8.00000000        3      -0.03768812       0.10277464       0.50726193
Fe       4.24650000       2.00181930       8.00000000        3       0.05097908       0.15834093       0.40267685
Fe       7.07750000       2.00181930       8.00000000        3       0.04192715       0.10394242       0.54390639
Fe       2.83100000       4.00363860       8.00000000        3      -0.04712904       0.13042739       0.41563910
Fe       5.66200000       4.00363860       8.00000000        3       0.04493325       0.13476130       0.47574210
Fe       8.49300000       4.00363860       8.00000000        3      -0.00913626       0.10603683       0.57663596
Fe       0.00000000       2.00181930      10.00181930        2      -0.08156189       0.18989369      -0.27393696
Fe       2.83100000       2.00181930      10.00181930        2      -0.08334956      -0.31116015      -0.69963300
Fe       5.66200000       2.00181930      10.00181930        2       0.05796598      -0.20690948      -0.58165675
Fe       1.41550000       4.00363860      10.00181930        2       0.06882990       0.01347860      -0.38100624
Fe       4.24650000       4.00363860      10.00181930        2      -0.13190886      -0.36688146      -0.74691653
Fe       7.07750000       4.00363860      10.00181930        2      -0.00042545      -0.08762252      -0.17427719
Fe       2.83100000       6.00545789      10.00181930        2       0.12766035       0.01788410      -0.48308578
Fe       5.66200000       6.00545789      10.00181930        2      -0.11748612      -0.10719241      -0.62387300
Fe       8.49300000       6.00545789      10.00181930        2       0.13579820      -0.21601731      -0.35888332
Fe       0.12199467       0.63656988      11.86157254        1      -0.01383014       0.00669110      -0.01849488
Fe       2.78806848       0.53845644      11.82308667        1      -0.00300642       0.00306470       0.00009682
Fe       5.75562805       0.55922257      11.82452116        1      -0.01421050      -0.01960077      -0.00330700
Fe       1.66626251       2.61478830      11.84084542        1      -0.01720617      -0.00351111      -0.00402929
Fe       4.26937026       2.53075210      11.82655562        1      -0.00890432       0.00251891       0.00830483
Fe       6.99016417       2.64059300      11.94633568        1       0.00001041       0.01494687       0.00787007
Fe       2.94099761       4.62328423      11.86029105        1      -0.00932060       0.00020917       0.00879925
Fe       5.49481820       4.60063846      11.82660175        1      -0.00872820      -0.00374930       0.00171384
Fe       8.51769612       4.49015898      11.87490101        1      -0.00796254       0.01233815      -0.00387317
N        7.82371000       3.55898133      13.48003428        0      -0.01312353      -0.01290518       0.00188460
H        7.21287289       4.10749008      14.09882471        0       0.02309325       0.00296186       0.00254520
H        8.45937422       3.00657026      14.06934711        0      -0.00599029      -0.00173368       0.00103412
