31
Lattice="8.493 0.0 0.0 4.2465 6.005457892617349 0.0 0.0 0.0 20.003638595078232" Properties=species:S:1:pos:R:3:tags:I:1:forces:R:3:charge:R:1 charge=0 spin=0 energy=-2459.4646513975863 free_energy=-2459.4646513975863 stress="0.026342542485095186 0.0006758122691564421 -0.0020198042295900102 0.0006758122691564421 -0.003798828861895073 -0.001197046370021251 -0.0020198042295900102 -0.001197046370021251 -0.0037375509158542844" dipole="-1.5790161601209955 -1.6337321353489598 2.2889748890756136" pbc="T T T"
Fe       0.00000000       0.00000000       8.00000000        3       0.02448428      -0.04933727      -0.01583849      -0.00769232
Fe       2.83100000       0.00000000       8.00000000        3       0.03257251      -0.13090315      -0.11891886      -0.00786175
Fe       5.66200000       0.00000000       8.00000000        3       0.00376189      -0.09312068      -0.00996763      -0.00709376
Fe       1.41550000       2.00181930       8.00000000        3      -0.04013527      -0.06694936       0.06620617      -0.00734160
Fe       4.24650000       2.00181930       8.00000000        3      -0.00163273      -0.06071282      -0.10367961      -0.00766624
Fe       7.07750000       2.00181930       8.00000000        3      -0.04171675      -0.01844882      -0.03078788      -0.00657770
Fe       2.83100000       4.00363860       8.00000000        3      -0.04882660      -0.05413366       0.00405318      -0.00711971
Fe       5.66200000       4.00363860       8.00000000        3       0.00668445      -0.02708312      -0.03416879      -0.00708078
Fe       8.49300000       4.00363860       8.00000000        3      -0.04040359      -0.07458836      -0.08436628      -0.00591298
Fe       0.00000000       2.00181930      10.00181930        2      -0.03884372      -0.26253572       0.04295743       0.00029139
Fe       2.83100000       2.00181930      10.00181930        2       0.17666603       0.31741036       0.01007763       0.00296114
Fe       5.66200000       2.00181930      10.00181930        2      -0.07235407       0.01056245      -0.16634646       0.00100013
Fe       1.41550000       4.00363860      10.00181930        2      -0.27890180      -0.03919799       0.01001418      -0.00024395
Fe       4.24650000       4.00363860      10.00181930        2      -0.08399915       0.35783966      -0.08347630       0.00019316
Fe       7.07750000       4.00363860      10.00181930        2       0.23046004      -0.21846334       0.08756806       0.00066589
Fe       2.83100000       6.00545789      10.00181930        2      -0.22003185       0.06777471      -0.90049299       0.01374170
Fe       5.66200000       6.00545789      10.00181930        2       0.30176297       0.13268913      -0.19686191       0.00005248
Fe       8.49300000       6.00545789      10.00181930        2      -0.00029839       0.03251488      -0.24600436       0.00260759
Fe       0.03741592      -0.48914617      11.79287658        1      -0.70693696      -0.02261392       1.53512368       0.04299865
Fe       2.92453378      -0.61396560      11.85604292        1       0.20133642       0.13810917      -0.02819494      -0.01291943
Fe       5.54632602      -0.61842095      11.85327239        1       0.23657647      -0.29949884       0.96133180       0.03603262
Fe       1.66696818       1.38343146      11.84399285        1       0.28647492       0.17193491      -0.00841787      -0.00213870
Fe       4.21157470       1.43718857      11.85463923        1      -0.44172924       0.20716945      -0.16751028      -0.00873271
Fe       6.79451448       1.34196791      11.96079996        1      -0.51334533       2.81373038      -0.95400074       0.06593055
Fe       2.82388211       3.48373599      11.82196881        1      -0.04634447      -0.46970989       0.07404105       0.01356853
Fe       5.58356007       3.48685678      11.80524310        1       0.35971771      -0.09198369      -0.13472756       0.00402956
Fe       8.44862271       3.30647500      11.95141457        1      -0.37992315      -0.17931503       0.18437200       0.00627449
N        7.08031494       2.01053201      13.59532161        0      -0.36654521       0.16339746       0.48094225      -0.36388929
H        7.27628668       0.72130939      13.68188236        0       0.00261027       0.00143671       0.00614901       0.39238675
H        6.48173422       2.27692599      14.38877545        0       0.36308028      -0.16164721      -0.48115388       0.24577527
O        7.08016134      -0.01916617      12.80553403        0       0.00049386      -0.00358620      -0.00481090      -0.37623897
