29
Lattice="8.493 0.0 0.0 4.2465 6.005457892617349 0.0 0.0 0.0 20.003638595078232" Properties=species:S:1:pos:R:3:tags:I:1:forces:R:3:charge:R:1 charge=0 spin=0 energy=-2170.0678153467393 free_energy=-2170.0678153467393 stress="0.021443910378382447 -0.0014856507856800083 0.0010038568945922224 -0.0014856507856800083 0.004369926815560904 -0.0006438441539398395 0.0010038568945922224 -0.0006438441539398395 -0.00301670877709921" dipole="0.33749323700675105 -0.06287284788404383 0.7999502124600272" pbc="T T T"
Fe       0.00000000       0.00000000       8.00000000        3       0.04961644      -0.07029813      -0.12298894      -0.00176721
Fe       2.83100000       0.00000000       8.00000000        3      -0.14134649       0.01785260      -0.01034710      -0.00406277
Fe       5.66200000       0.00000000       8.00000000        3       0.00945891       0.01346770      -0.05835316      -0.00325567
Fe       1.41550000       2.00181930       8.00000000        3       0.02932361      -0.06114584      -0.11936186      -0.00330317
Fe       4.24650000       2.00181930       8.00000000        3      -0.05672051       0.00619381       0.02988957      -0.00404638
Fe       7.07750000       2.00181930       8.00000000        3       0.00878163       0.02331949      -0.06975258      -0.00224526
Fe       2.83100000       4.00363860       8.00000000        3       0.06688765      -0.05353029      -0.03359744      -0.00251835
Fe       5.66200000       4.00363860       8.00000000        3      -0.05477053      -0.00206025      -0.01394097      -0.00315173
Fe       8.49300000       4.00363860       8.00000000        3       0.09818839       0.00201682      -0.03256167      -0.00410200
Fe       0.00000000       2.00181930      10.00181930        2      -0.13113695       0.35844982      -0.31178950       0.00117279
Fe       2.83100000       2.00181930      10.00181930        2      -0.28337348      -0.22083168       0.27889237       0.00112790
Fe       5.66200000       2.00181930      10.00181930        2       0.24324898      -0.18546940      -0.94196609       0.00902261
Fe       1.41550000       4.00363860      10.00181930        2       0.15761613       0.47440589      -0.33649684       0.00328872
Fe       4.24650000       4.00363860      10.00181930        2       0.04788827      -0.19672752       0.09338254       0.00020802
Fe       7.07750000       4.00363860      10.00181930        2      -0.13949806      -0.22331695      -0.57060568       0.00584854
Fe       2.83100000       6.00545789      10.00181930        2       0.12049235       0.47744435      -0.73306734       0.00304062
Fe       5.66200000       6.00545789      10.00181930        2      -0.09389248      -0.36170227       0.26016939       0.00021822
Fe       8.49300000       6.00545789      10.00181930        2       0.40620413      -0.33106481      -1.14716520       0.00517720
Fe      -0.39294215      -0.64081239      11.89914594        1       0.08946547       0.12330559       0.68198241      -0.01837688
Fe       3.15129007       0.29900728      11.82621820        1      -0.61897620       0.04294500       0.77445467       0.00861899
Fe       5.67580923      -0.51311943      11.82642584        1      -0.05496635      -0.55498280       0.19124565       0.02300824
Fe       1.05372265       1.35349095      11.91274636        1       0.10803270       0.05871098       0.26296256      -0.00266583
Fe       4.55718257       2.19495814      11.91059787        1       0.93802930       0.03590232       1.74241538       0.05222301
Fe       7.10981515       1.49918791      11.89013415        1      -0.90765255       0.63202521       3.13450007       0.04519250
Fe       2.47355433       3.34496955      11.89808500        1       0.16975947       0.06331727       0.24481354       0.00242434
Fe       5.98591592       4.41079687      11.91895696        1       0.09417819      -0.02878133       0.37374469       0.04504013
Fe       8.55500895       3.53463000      11.82006576        1       0.19974546       0.12226790       0.21529451       0.02322186
O        6.23539527       2.12673247      13.18130257        0       0.02185482      -0.00768611      -0.00303542      -0.33609591
H        7.84936536       0.60599336      13.28088252        0      -0.01749563       0.00767979       0.00585700       0.15675747
