30
Lattice="8.493 0.0 0.0 4.2465 6.005457892617349 0.0 0.0 0.0 20.003638595078232" Properties=species:S:1:pos:R:3:tags:I:1:forces:R:3 charge=0 spin=0 energy=-195.7967301179649 free_energy=-195.7967301179649 stress="0.04564030468463898 -0.00032518067746423185 -2.775697794277221e-05 -0.00032518067746423185 0.031485993415117264 1.1079046089434996e-05 -2.775697794277221e-05 1.1079046089434996e-05 0.011061262339353561" pbc="T T T"
Fe       0.00000000       0.00000000       8.00000000        3       0.00008591      -0.00028313       0.46561861
Fe       2.83100000       0.00000000       8.00000000        3       0.02115733       0.02259293       0.52536410
Fe       5.66200000       0.00000000       8.00000000        3      -0.02046348      -0.02301717       0.52732116
Fe       1.41550000       2.00181930       8.00000000        3      -0.11020593       0.00136194       0.60130811
Fe       4.24650000       2.00181930       8.00000000        3       0.03871579      -0.02059341       0.58043307
Fe       7.07750000       2.00181930       8.00000000        3       0.01028547      -0.02322778       0.53234160
Fe       2.83100000       4.00363860       8.00000000        3       0.10816839      -0.00297284       0.60105693
Fe       5.66200000       4.00363860       8.00000000        3      -0.01110651       0.02173892       0.53207332
Fe       8.49300000       4.00363860       8.00000000        3      -0.04073811       0.01955489       0.58275944
Fe      -0.00000000       2.00181930      10.00181930        2      -0.24866624       0.16738296      -0.15299207
Fe       2.83100000       2.00181930      10.00181930        2      -0.12221903       0.05716294      -0.82050103
Fe       5.66200000       2.00181930      10.00181930        2       0.48155135      -0.00956125      -0.35840261
Fe       1.41550000       4.00363860      10.00181930        2       0.12241670      -0.04998983      -0.82052964
Fe       4.24650000       4.00363860      10.00181930        2       0.24977419      -0.16468017      -0.16158348
Fe       7.07750000       4.00363860      10.00181930        2      -0.48080656       0.01945852      -0.34172526
Fe       2.83100000       6.00545789      10.00181930        2       0.01708475      -0.05958683      -0.69600630
Fe       5.66200000       6.00545789      10.00181930        2      -0.01510085       0.06177124      -0.69660920
Fe       8.49300000       6.00545789      10.00181930        2      -0.00217749       0.00738880      -0.58301800
Fe       0.00034046       0.00058805      11.84786043        1       0.00357894       0.00379095      -0.04025294
Fe       2.82766209       0.00651086      11.85374919        1      -0.04762099      -0.09090241      -0.02759509
Fe       5.66490285      -0.00867208      11.85349977        1       0.04362493       0.07036456      -0.02611265
Fe       1.42363889       1.99740142      11.86518566        1       0.05642763      -0.08016472       0.00015700
Fe       4.19591993       1.99909360      11.81698685        1      -0.15733850       0.06016810      -0.13839023
Fe       7.02519235       1.97171903      11.99209112        1      -0.15391432      -0.21670197       0.21778926
Fe       2.82277374       4.00805693      11.86484398        1      -0.05018915       0.07794528       0.00005755
Fe       5.70791797       4.03078344      11.99257873        1       0.12980276       0.20226958       0.21814206
Fe       8.54302004       4.00493944      11.81681526        1       0.15066646      -0.07729754      -0.13682514
N        6.35884435       2.99473861      13.53079622        0       0.06667012       0.05390909      -0.03168081
H        5.70829040       2.50863724      14.16384844        0      -0.13745239      -0.04519131      -0.18433116
H        7.02061401       3.48998969      14.14655609        0       0.09798908       0.01730965      -0.16786751
