41
Lattice="7.708127040155146 0.0 0.0 3.854063520077573 6.675433832372109 0.0 0.0 0.0 22.29365937364323" Properties=species:S:1:pos:R:3:tags:I:1:forces:R:3:charge:R:1 energy=-4705.74043004387 free_energy=-4705.74043004387 stress="-0.014265707896186277 0.00016975148998818007 -3.935529893888207e-05 0.00016975148998818007 -0.013035980670521542 -1.0593180962742075e-05 -3.935529893888207e-05 -1.0593180962742075e-05 -0.015064976186414213" dipole="1.336499417442304 0.7606308393776339 1.5219001738098754" pbc="T T F"
Cu       0.00000000      -0.00000000       8.00000000        4      -0.05781666      -0.03728301      -0.31468391      -0.00269152
Cu       2.56937568       0.00000000       8.00000000        4      -0.02081860      -0.04901331      -0.27225673       0.00922411
Cu       5.13875136       0.00000000       8.00000000        4       0.07618850      -0.01291770      -0.31367980      -0.01505746
Cu       1.28468784       2.22514461       8.00000000        4      -0.00920382       0.01109190      -0.32387564      -0.01314840
Cu       3.85406352       2.22514461       8.00000000        4       0.02435745       0.02367681      -0.29338759       0.01792652
Cu       6.42343920       2.22514461       8.00000000        4      -0.01611214      -0.02073723      -0.29896461      -0.00445084
Cu       2.56937568       4.45028922       8.00000000        4       0.01287963       0.06255879      -0.31989017      -0.00179622
Cu       5.13875136       4.45028922       8.00000000        4       0.00552949       0.02528975      -0.32762663      -0.03261881
Cu       7.70812704       4.45028922       8.00000000        4      -0.01966971       0.01494090      -0.28476304      -0.00747463
Cu       1.28468784       0.74171487      10.09788646        3       0.01369463       0.06847210      -0.01510455      -0.00818016
Cu       3.85406352       0.74171487      10.09788646        3      -0.01221844       0.01178914      -0.03595826      -0.00508963
Cu       6.42343920       0.74171487      10.09788646        3       0.00278223       0.00679614      -0.00665486      -0.00260491
Cu       2.56937568       2.96685948      10.09788646        3      -0.06663139      -0.01592785      -0.00618368      -0.02152270
Cu       5.13875136       2.96685948      10.09788646        3       0.02483845       0.01763550      -0.06236923       0.00159712
Cu       7.70812704       2.96685948      10.09788646        3       0.04378024      -0.06362042      -0.04327252       0.01417651
Cu       3.85406352       5.19200409      10.09788646        3      -0.00415197      -0.03259868      -0.02583598       0.00100372
Cu       6.42343920       5.19200409      10.09788646        3      -0.05359456      -0.01971325      -0.13010629       0.03200977
Cu       8.99281488       5.19200409      10.09788646        3       0.06295694      -0.02169290      -0.04567592       0.01046453
Cu      -0.00001456       1.48341895      12.22216237        2      -0.00366381       0.00566113       0.11794537       0.00568395
Cu       2.56938632       1.48343972      12.22228812        2      -0.01326647       0.02098420       0.09836864       0.02505495
Cu       5.13868200       1.48341490      12.22229490        2       0.00676130      -0.02967009       0.06626273       0.00706527
Cu       1.28472730       3.70860469      12.22229670        2       0.06516829       0.00703165       0.14206927      -0.01641085
Cu       3.85404919       3.70853617      12.22226661        2       0.00329554       0.05679936       0.04980879       0.01735804
Cu       6.42343137       3.70855859      12.22219237        2      -0.08459181       0.01727139       0.07225231      -0.02606753
Cu       2.56933175       5.93372331      12.22226822        2      -0.01454902      -0.00131128       0.03010830      -0.00192697
Cu       5.13873976       5.93371007      12.22221793        2      -0.00938574      -0.04537047       0.06985378      -0.01603864
Cu       7.70811165       5.93376676      12.22227910        2       0.02653026       0.04233706       0.10637008      -0.01970800
Cu       0.00003176       0.00005032      14.34901118        1      -0.11444760       0.09002869       0.30601435      -0.07817573
Cu       2.56930125       0.00001804      14.34916312        1      -0.00551115       0.34613505       0.12234532      -0.01723539
Cu       5.13864853       0.00002580      14.34922433        1       0.13691538       0.11050627       0.30886908      -0.03555338
Cu       1.28470809       2.22517124      14.34907163        1       0.13788223      -0.10512453       0.26255703      -0.03096864
Cu       3.85409307       2.22518508      14.34928516        1      -0.13690623      -0.15074281       0.29633146      -0.06816917
Cu       6.42349021       2.22507450      14.34904494        1       0.01159578      -0.33259005       0.14780218      -0.01220635
Cu       2.56959011       4.45037276      14.34913478        1       0.04033634       0.00094723       0.33777194      -0.07647738
Cu       5.13896751       4.45026038      14.34907842        1      -0.27420040       0.00614880       0.30846073       0.06146270
Cu       7.70816084       4.45028686      14.34912297        1       0.22045087      -0.03305232       0.26395358       0.15122793
O        7.05611718       4.38373879      16.34563228        0      -0.00829008      -0.00726127       0.00765069      -0.46763772
C        5.62882913       4.46497542      16.38520574        0      -0.01090902       0.01231869       0.00521707       0.13853018
H        5.32520984       5.38255078      16.89970840        0       0.01022010      -0.01807400       0.00244653       0.05053625
H        5.22121061       3.60450493      16.92430939        0       0.00612415       0.00439883       0.00209126       0.04789824
H        7.44460634       4.25556974      17.22069353        0       0.00365088       0.03388180      -0.00426108       0.38999121
