41
Lattice="7.708127040155146 0.0 0.0 3.854063520077573 6.675433832372109 0.0 0.0 0.0 22.29365937364323" Properties=species:S:1:pos:R:3:tags:I:1:forces:R:3:charge:R:1 energy=-4705.0695076076345 free_energy=-4705.0695076076345 stress="-0.013816030480712735 1.6168642090274516e-05 -0.0003075582529910558 1.6168642090274516e-05 -0.01325549583313801 2.9975387603323705e-05 -0.0003075582529910558 2.9975387603323705e-05 -0.014248210332458397" dipole="-0.15054339932740665 0.4332287085898737 0.9731137539164398" pbc="T T F"
Cu       0.00000000      -0.00000000       8.00000000        4      -0.04990924      -0.00941546      -0.28847457       0.01597552
Cu       2.56937568       0.00000000       8.00000000        4       0.03365593      -0.02720807      -0.30009755       0.00048472
Cu       5.13875136       0.00000000       8.00000000        4       0.01644317      -0.00200442      -0.33028132      -0.01973051
Cu       1.28468784       2.22514461       8.00000000        4       0.03141571       0.00199489      -0.34199660      -0.01960502
Cu       3.85406352       2.22514461       8.00000000        4       0.00476917      -0.01164468      -0.29444436       0.01375274
Cu       6.42343920       2.22514461       8.00000000        4      -0.03630523      -0.00727015      -0.31096235      -0.00121699
Cu       2.56937568       4.45028922       8.00000000        4      -0.00717398       0.02437907      -0.30110004       0.00207353
Cu       5.13875136       4.45028922       8.00000000        4       0.04348118      -0.00557481      -0.31439371      -0.02881185
Cu       7.70812704       4.45028922       8.00000000        4      -0.03628998       0.04425198      -0.30402629       0.00941481
Cu       1.28468784       0.74171487      10.09788646        3       0.02665096       0.10189983      -0.01823968      -0.00327050
Cu       3.85406352       0.74171487      10.09788646        3      -0.02796428      -0.00256805      -0.03018516      -0.00017321
Cu       6.42343920       0.74171487      10.09788646        3       0.00213727       0.01937217      -0.04262572       0.00183319
Cu       2.56937568       2.96685948      10.09788646        3      -0.08602912      -0.02279770      -0.00420887      -0.00738237
Cu       5.13875136       2.96685948      10.09788646        3       0.04127407       0.05335981      -0.04659445       0.00634601
Cu       7.70812704       2.96685948      10.09788646        3       0.04644178      -0.05675051      -0.00214131      -0.00634188
Cu       3.85406352       5.19200409      10.09788646        3       0.00193061      -0.05182807      -0.06873405       0.00164141
Cu       6.42343920       5.19200409      10.09788646        3      -0.04795014      -0.03837226      -0.06221115       0.00918591
Cu       8.99281488       5.19200409      10.09788646        3       0.04395245      -0.02247374      -0.02188608       0.00161632
Cu      -0.00001456       1.48341895      12.22216237        2      -0.01066884       0.02239496       0.12476375       0.00217812
Cu       2.56938632       1.48343972      12.22228812        2      -0.02443381      -0.01435053       0.13482048       0.00590402
Cu       5.13868200       1.48341490      12.22229490        2       0.03649008      -0.05212571       0.07529430      -0.00533371
Cu       1.28472730       3.70860469      12.22229670        2       0.01934431       0.00231666       0.10364857       0.00197380
Cu       3.85404919       3.70853617      12.22226661        2       0.04918488       0.07714741       0.11230197       0.00772760
Cu       6.42343137       3.70855859      12.22219237        2      -0.05709938       0.04007779       0.08320749      -0.00060620
Cu       2.56933175       5.93372331      12.22226822        2      -0.04921526       0.00572264       0.08109507      -0.00271352
Cu       5.13873976       5.93371007      12.22221793        2       0.03398225      -0.08032345       0.08168410       0.00200871
Cu       7.70811165       5.93376676      12.22227910        2       0.01373464       0.02421535       0.05557426      -0.01038941
Cu       0.00003176       0.00005032      14.34901118        1      -0.12692554       0.17913595       0.18184626      -0.01846017
Cu       2.56930125       0.00001804      14.34916312        1       0.10205172       0.13658222       0.22475677      -0.00956014
Cu       5.13864853       0.00002580      14.34922433        1       0.01268742      -0.01892347       0.30515338      -0.03224261
Cu       1.28470809       2.22517124      14.34907163        1       0.00932773       0.01102594       0.27246944      -0.03171030
Cu       3.85409307       2.22518508      14.34928516        1      -0.12944993      -0.16502713       0.19794179      -0.01781368
Cu       6.42349021       2.22507450      14.34904494        1       0.10173675      -0.09993045       0.23628575      -0.00798738
Cu       2.56959011       4.45037276      14.34913478        1      -0.31456285      -0.00254248       0.14843306      -0.04242872
Cu       5.13896751       4.45026038      14.34907842        1       0.33837551      -0.04673693       0.59401635       0.01534677
Cu       7.70816084       4.45028686      14.34912297        1       0.08227914      -0.01543624       0.32975182       0.02246682
O        6.22761081       4.41276389      17.38640979        0      -0.04324591      -0.00222593      -0.28838555      -0.52424466
C        5.14537800       4.43733364      16.51251573        0      -0.17192702       0.00959816       0.09725144       0.19310095
H        4.55485416       5.35182449      16.67591763        0      -0.12569916       0.12789371      -0.08433097       0.05683404
H        4.48745083       3.57710976      16.70815744        0      -0.11413160      -0.10434987      -0.09266817       0.05514273
H        5.84409562       4.41187194      18.27758080        0       0.36763454      -0.02148842       0.10769190       0.36501509
