108
Lattice="13.51006709 0.0 0.0 0.0 13.51716258 0.0 0.0 0.0 6.15683565" Properties=species:S:1:pos:R:3:layer:I:1:forces:R:3 pbc="F F F" energy=-64229.35611012806 stress="0.5545460819553192 3.488998937757916e-05 2.7544728455983548e-06 3.488998937757916e-05 0.5351619383832285 -0.0 2.7544728455983548e-06 -0.0 0.4611933245875302" pbc="T T F"
Pt       0.00946146       0.05805985       0.05911690     3   -0.00835197       0.03228329      -0.02082234
Pt       2.26063021       2.31112800       1.59779547     2   -0.01714849      -0.00563689       0.01123032
O        0.59559146       3.42035259       1.59768158     2    0.00717878       0.00669181       0.01289151
O        3.92383574       1.20084429       1.59725243     2    0.02046315      -0.01975019       0.02613861
O        2.84804657       3.45388823       0.05853546     3    0.00009667       0.00036613       0.01091408
O        1.67257481       1.16825018       0.05858665     3    0.01502836       0.01559734       0.00702451
Pt       0.00954932       0.05822504       3.13801501     1   -0.01436372       0.02359090      -0.03724474
Pt       2.26037520       2.31131429       4.67662966     0   -0.00395333      -0.01553383      -0.00047617
O        0.59600221       3.41996560       4.67694200     0   -0.00894615       0.02415397      -0.00713224
O        3.92373128       1.20086754       4.67678313     0    0.01911127      -0.01686772       0.00051782
O        2.84768522       3.45367773       3.13797983     1    0.00767783       0.00563894      -0.01792316
O        1.67285768       1.16854139       3.13785424     1    0.00898781       0.01028570      -0.01134448
Pt       0.00908258       4.56378813       0.05918636     3    0.00197615      -0.00127090      -0.02667288
Pt       2.26069779       6.81733116       1.59834184     2    0.01647589       0.01098452      -0.02694388
O        0.59724762       7.92781722       1.59740075     2   -0.01205153       0.00951257       0.01549990
O        3.92504590       5.70681832       1.59762916     2    0.00167302      -0.00201883       0.01515382
O        2.84864646       7.96098314       0.05822885     3   -0.00793365      -0.01777584       0.02078351
O        1.67319820       5.67461457       0.05821165     3   -0.00050934       0.00084409       0.02157567
Pt       0.00910799       4.56378944       3.13725191     1    0.00091043      -0.00061398       0.01151854
Pt       2.26072858       6.81733336       4.67681739     0    0.01617224       0.01040680      -0.01591307
O        0.59763643       7.92740232       4.67672947     0   -0.02597945       0.02618129      -0.00831315
O        3.92466018       5.70720004       4.67688329     0    0.01549938      -0.01885467      -0.00668872
O        2.84827354       7.96069737       3.13747079     1    0.00179103      -0.00799433      -0.00251737
O        1.67352924       5.67493309       3.13744972     1   -0.00994528      -0.00916238      -0.00081915
Pt       0.00944963       9.07086445       0.05889408     3    0.01160467      -0.00328818      -0.02280363
Pt       2.26142534      11.32437832       1.59741377     2    0.00037435      -0.02629724       0.01947456
O        0.59748329      12.43402980       1.59710431     2    0.00076156      -0.00495400       0.02966770
O        3.92606477      10.21419944       1.59746193     2   -0.00499257      -0.00257187       0.01092256
O        2.84911351      12.46652762       0.05835758     3   -0.00755570      -0.00661905       0.00590557
O        1.67358910      10.18123606       0.05833215     3    0.00594028       0.00820079       0.00837537
Pt       0.00944790       9.07092078       3.13701245     1    0.01025099      -0.00538183       0.01364176
Pt       2.26151200      11.32428791       4.67642857     0   -0.00534712      -0.02132242      -0.00308198
O        0.59783685      12.43368681       4.67678447     0   -0.00737007       0.00204583      -0.00036407
O        3.92548292      10.21477008       4.67671621     0    0.01472188      -0.02627693      -0.00839594
O        2.84865158      12.46618713       3.13763838     1    0.00370959       0.00170798      -0.01244954
O        1.67389563      10.18141379       3.13769230     1   -0.00100942       0.00526176      -0.01779023
Pt       4.51287557       0.05807497       0.05903624     3   -0.00885334       0.03259490      -0.01491446
Pt       6.76429997       2.31094469       1.59783037     2   -0.01653348      -0.00759452       0.01018157
O        5.09917315       3.42027146       1.59774153     2    0.00649101       0.00706385       0.01058343
O        8.42774476       1.20082043       1.59725492     2    0.01682067      -0.01869603       0.02582416
O        7.35194753       3.45338150       0.05851849     3   -0.00109092       0.00427806       0.01249145
O        6.17630004       1.16792455       0.05859738     3    0.01425882       0.01592541       0.00712890
Pt       4.51292265       0.05819338       3.13803692     1   -0.01189804       0.02659369      -0.03934816
Pt       6.76401137       2.31114452       4.67668388     0   -0.00168844      -0.01905007      -0.00268603
O        5.09961389       3.41987619       4.67695895     0   -0.01051273       0.02553285      -0.00752305
O        8.42762093       1.20084532       4.67677378     0    0.01544230      -0.01614576       0.00036150
O        7.35157637       3.45318122       3.13796895     1    0.00697875       0.00944238      -0.01771156
O        6.17659380       1.16823381       3.13782604     1    0.00744026       0.00985761      -0.00963804
Pt       4.51255712       4.56383969       0.05916938     3   -0.00047334      -0.00116214      -0.02549429
Pt       6.76439283       6.81717866       1.59840858     2    0.01829031       0.00763952      -0.02985616
O        5.10081457       7.92776626       1.59743886     2   -0.01219731       0.00872170       0.01414312
O        8.42906393       5.70681781       1.59760644     2   -0.00328638       0.00107266       0.01571407
O        7.35244557       7.96067074       0.05823333     3   -0.01014146      -0.01516899       0.02091850
O        6.17703271       5.67420801       0.05821495     3   -0.00040829       0.00215021       0.02235677
Pt       4.51251580       4.56378265       3.13718942     1    0.00096802       0.00153109       0.01544127
Pt       6.76443406       6.81717574       4.67685705     0    0.01672991       0.00797248      -0.01734389
O        5.10122615       7.92731609       4.67675994     0   -0.02735088       0.02825360      -0.00883354
O        8.42863337       5.70726277       4.67688515     0    0.01285063      -0.01920434      -0.00673398
O        7.35209910       7.96037077       3.13743436     1   -0.00045149      -0.00532193      -0.00036124
O        6.17737209       5.67453796       3.13743005     1   -0.01094416      -0.00892121       0.00009667
Pt       4.51293810       9.07097157       0.05897304     3    0.00783672      -0.00323213      -0.02785276
Pt       6.76519841      11.32422025       1.59746433     2    0.00200392      -0.02671402       0.01764111
O        5.10124544      12.43402759       1.59715823     2   -0.00137425      -0.00345993       0.02780262
O        8.43011973      10.21431763       1.59744681     2   -0.00764029      -0.00379958       0.01101255
O        7.35305504      12.46618117       0.05837675     3   -0.00957325      -0.00450329       0.00608837
O        6.17727397      10.18102709       0.05831841     3    0.00637145       0.00940458       0.00962107
Pt       4.51291446       9.07097594       3.13688712     1    0.00834786      -0.00425415       0.02301703
Pt       6.76525329      11.32416194       4.67645265     0   -0.00372759      -0.02275941      -0.00326273
O        5.10161268      12.43370385       4.67678009     0   -0.00942644       0.00275108      -0.00076747
O        8.42954958      10.21485709       4.67670917     0    0.01031912      -0.02480986      -0.00850135
O        7.35259390      12.46581392       3.13763033     1    0.00253639       0.00442153      -0.01179802
O        6.17761711      10.18121676       3.13769785     1   -0.00176043       0.00503165      -0.01763880
Pt       9.01661957       0.05804814       0.05901792     3   -0.01125860       0.03197861      -0.01499236
Pt      11.26775237       2.31080522       1.59775530     2   -0.01986383      -0.00535972       0.01367518
O        9.60270661       3.42024126       1.59772564     2    0.00634420       0.00510133       0.01092282
O       12.93094301       1.20079690       1.59722778     2    0.01695257      -0.01804477       0.02677341
O       11.85524249       3.45327143       0.05853242     3   -0.00318354       0.00241632       0.01081997
O       10.67998815       1.16772759       0.05859029     3    0.01295013       0.01717137       0.00639665
Pt       9.01669773       0.05816480       3.13801931     1   -0.01554155       0.02600799      -0.03830250
Pt      11.26746980       2.31098908       4.67665695     0   -0.00647121      -0.01537648      -0.00294263
O        9.60317849       3.41980614       4.67694838     0   -0.01221120       0.02643454      -0.00733536
O       12.93081239       1.20084080       4.67677274     0    0.01681810      -0.01664095       0.00139637
O       11.85486303       3.45306844       3.13797166     1    0.00555975       0.00774468      -0.01772827
O       10.68027032       1.16801951       3.13784893     1    0.00677846       0.01226313      -0.01135193
Pt       9.01625772       4.56378266       0.05927586     3   -0.00409088      -0.00461359      -0.03312764
Pt      11.26773261       6.81695271       1.59828707     2    0.01703047       0.00922769      -0.02229866
O        9.60446409       7.92779078       1.59743917     2   -0.01471931       0.00901557       0.01343350
O       12.93218602       5.70675800       1.59758866     2   -0.00265698      -0.00011159       0.01605397
O       11.85581925       7.96035088       0.05825965     3   -0.01198365      -0.01637176       0.01934087
O       10.68067330       5.67387754       0.05819424     3   -0.00147864       0.00413588       0.02206135
Pt       9.01624229       4.56374003       3.13709090     1   -0.00334603      -0.00240295       0.02222590
Pt      11.26783188       6.81693906       4.67682774     0    0.01337359       0.01061043      -0.01678519
O        9.60484316       7.92737612       4.67674024     0   -0.02741439       0.02534928      -0.00872658
O       12.93176415       5.70716815       4.67686778     0    0.01274393      -0.01778046      -0.00549445
O       11.85543741       7.96005039       3.13746336     1   -0.00142156      -0.00645038      -0.00215201
O       10.68099481       5.67420650       3.13748767     1   -0.01121001      -0.00582535      -0.00280225
Pt       9.01661421       9.07086052       0.05885554     3    0.00847616      -0.00209596      -0.02104808
Pt      11.26853615      11.32396948       1.59741003     2   -0.00052939      -0.02170628       0.01926168
O        9.60488236      12.43414131       1.59714912     2   -0.00192036      -0.00506713       0.02759616
O       12.93311874      10.21407317       1.59741226     2   -0.00756599      -0.00279299       0.01214126
O       11.85622862      12.46603394       0.05835871     3   -0.01094390      -0.00627863       0.00608529
O       10.68114331      10.18069823       0.05832436     3    0.00162931       0.00757164       0.00841008
Pt       9.01659511       9.07086136       3.13697407     1    0.00823807      -0.00229060       0.01663144
Pt      11.26860723      11.32388882       4.67641551     0   -0.00488252      -0.01753518      -0.00166659
O        9.60525036      12.43379563       4.67678962     0   -0.01017128       0.00123053      -0.00108938
O       12.93253964      10.21459410       4.67669919     0    0.01060631      -0.02362304      -0.00769660
O       11.85571507      12.46565590       3.13764992     1    0.00230191       0.00372193      -0.01303061
O       10.68145604      10.18091105       3.13770042     1   -0.00623878       0.00338229      -0.01835176
