162
Lattice="11.478464379001224 0.0 0.0 5.739232189500613 9.940641748649831 0.0 0.0 0.0 47.963243262864125" Properties=species:S:1:pos:R:3:tags:I:1:forces:R:3:energies:R:1 energy=-1349.500244140625 stress="-0.0002868694718927145 1.9547168050859653e-10 -6.382826212014692e-11 1.9547168050859653e-10 -0.00028686554287560284 3.170980811262325e-09 -6.382826212014692e-11 3.170980811262325e-09 -0.00015018782869447023" free_energy=-1349.500244140625 pbc="T T F"
Ce      -0.00000428      -0.00000318      14.79256168        0       0.00007768       0.00002841      -0.00032155      -6.56957912
Ce       1.91308671       3.31355563      14.79255339        0      -0.00018600      -0.00017199      -0.00018876      -6.56955814
Ce       3.82615488      -0.00000830      14.79256178        0      -0.00000100       0.00015025      -0.00033974      -6.56958151
Ce       3.82615283       6.62708572      14.79255739        0       0.00000040       0.00020531      -0.00023670      -6.56955385
Ce       5.73921242       3.31355149      14.79256362        0       0.00033733      -0.00008149      -0.00033806      -6.56957245
Ce       7.65231457      -0.00000008      14.79257600        0      -0.00010786       0.00001196      -0.00058748      -6.56958914
Ce       7.65231272       6.62710320      14.79256754        0      -0.00006680      -0.00019283      -0.00043136      -6.56958389
Ce       9.56539141       3.31354531      14.79257033        0      -0.00008097       0.00005509      -0.00047306      -6.56958818
Ce      11.47846182       6.62709221      14.79256805        0       0.00008175       0.00002739      -0.00045103      -6.56957197
Ce       1.91307762       1.10451443      18.21018653        3      -0.00001412       0.00004200      -0.00693278      -7.22040606
Ce       3.82615972       4.41806343      18.21019184        3      -0.00008532       0.00000835      -0.00695154      -7.22040176
Ce       5.73923897       1.10451153      18.21019038        3      -0.00012174       0.00008856      -0.00692235      -7.22038651
Ce       5.73923446       7.73160823      18.21018918        3      -0.00006394       0.00003073      -0.00695264      -7.22039795
Ce       7.65231336       4.41806439      18.21018883        3      -0.00006160      -0.00001512      -0.00693655      -7.22038603
Ce       9.56537751       1.10451659      18.21018797        3       0.00016046      -0.00002006      -0.00688179      -7.22038364
Ce       9.56539133       7.73160616      18.21018763        3      -0.00006977       0.00006762      -0.00692035      -7.22038364
Ce      11.47845901       4.41806756      18.21018564        3       0.00012112      -0.00007724      -0.00688480      -7.22039413
Ce      13.39153522       7.73161579      18.21018898        3       0.00012499      -0.00013133      -0.00688581      -7.22038364
Ce       3.82615479       2.20903150      21.24808461        6      -0.00008370       0.00007788       1.52413070      -7.73081827
Ce       5.73923219       5.52257875      21.24808461        6      -0.00031653       0.00002309       1.52451277      -7.73079967
Ce       7.65230959       2.20903150      21.24808461        6      -0.00004773      -0.00020467       1.52468348      -7.73079729
Ce       7.65230959       8.83612600      21.24808461        6      -0.00009505       0.00017795       1.52380037      -7.73078251
Ce       9.56538698       5.52257875      21.24808461        6       0.00018891      -0.00000180       1.52424812      -7.73075819
Ce      11.47846438       2.20903150      21.24808461        6       0.00013339      -0.00005618       1.52426267      -7.73081589
Ce      11.47846438       8.83612600      21.24808461        6       0.00018937       0.00001702       1.52473664      -7.73082352
Ce      13.39154178       5.52257875      21.24808461        6       0.00013837       0.00004238       1.52499640      -7.73086023
Ce      15.30461917       8.83612600      21.24808461        6      -0.00010260      -0.00009204       1.52506304      -7.73086166
Ce       3.82605801       0.00002006      24.46065003        9       0.00250201      -0.00079691       0.24356990      -7.83047152
Ce       5.73917127       3.31352806      24.46058501        9       0.00189279       0.00055725       0.24524778      -7.83069611
Ce       7.65227901       0.00001979      24.46062026        9       0.00079255      -0.00045140       0.24434382      -7.83082867
Ce       7.65232833       6.62717309      24.46051221        9      -0.00028341      -0.00214302       0.24716574      -7.83067226
Ce       9.56543163       3.31356109      24.46051588        9      -0.00131541      -0.00013802       0.24702495      -7.83079052
Ce      11.47839778       6.62709091      24.46058279        9       0.00141456       0.00004769       0.24541970      -7.83076811
Ce      11.47859184       0.00001690      24.46066729        9      -0.00330468      -0.00054506       0.24312399      -7.83055353
Ce      13.39155687       3.31344547      24.46069547        9      -0.00056506       0.00266036       0.24238245      -7.83051300
Ce      15.30466882       6.62706991      24.46066356        9      -0.00115214       0.00076212       0.24330251      -7.83076477
Ce       1.91305946       1.10457950      27.69153884       12       0.00044745      -0.00164989       0.05475210      -7.78453112
Ce       3.82604977       4.41804954      27.69162109       12       0.00298886       0.00040166       0.05252813      -7.78462172
Ce       5.73905146       7.73173875      27.69164511       12       0.00476617      -0.00350377       0.05170788      -7.78469467
Ce       5.73918712       1.10447332      27.69165108       12       0.00136983       0.00119267       0.05178807      -7.78470945
Ce       7.65222039       4.41798867      27.69166368       12       0.00249294       0.00196440       0.05108477      -7.78517151
Ce       9.56544656       7.73177144      27.69159222       12      -0.00156284      -0.00449762       0.05291235      -7.78500032
Ce       9.56545061       1.10434135      27.69171627       12      -0.00182368       0.00468646       0.04994491      -7.78464890
Ce      11.47865862       4.41797903      27.69163078       12      -0.00551339       0.00230383       0.05197959      -7.78487015
Ce      13.39166295       7.73165109      27.69172135       12      -0.00319434      -0.00090080       0.04963442      -7.78456497
Ce       3.82616830       2.20904953      30.90786930       15      -0.00027213      -0.00014550       0.00479311      -8.03353500
Ce       5.73921163       5.52258654      30.90789733       15       0.00065835      -0.00027085       0.00378281      -8.03354454
Ce       7.65227386       8.83613378      30.90791905       15       0.00082366      -0.00028207       0.00365743      -8.03361130
Ce       7.65231661       2.20900222      30.90788059       15      -0.00031800       0.00097136       0.00419120      -8.03349113
Ce       9.56538955       5.52256518      30.90795200       15      -0.00017205       0.00039700       0.00226673      -8.03365517
Ce      11.47844287       2.20901102      30.90786493       15       0.00061443       0.00059420       0.00485075      -8.03349590
Ce      11.47852055       8.83613774      30.90787585       15      -0.00131507      -0.00030380       0.00472730      -8.03349113
Ce      13.39155988       5.52260659      30.90786121       15      -0.00048353      -0.00072712       0.00510138      -8.03347206
Ce      15.30460337       8.83613773      30.90780580       15       0.00050034      -0.00021868       0.00658831      -8.03331947
O        1.91307811       1.10451283      14.36734143        1      -0.00000874       0.00004805       0.00008064      -9.75803280
O        3.82615508       4.41806268      14.36734097        1      -0.00002905       0.00003222      -0.00001500      -9.75809193
O        5.73923139       1.10451606      14.36734125        1       0.00000707       0.00000534       0.00008983      -9.75802803
O        5.73923660       7.73160938      14.36733883        1      -0.00007942      -0.00001874       0.00006319      -9.75804138
O        7.65231317       4.41805987      14.36734259        1      -0.00006644       0.00001267       0.00010955      -9.75801373
O        9.56538584       1.10451520      14.36734016        1       0.00002098       0.00000636       0.00006250      -9.75804424
O        9.56538400       7.73161006      14.36734080        1       0.00004389      -0.00001370       0.00003755      -9.75805569
O       11.47846290       4.41806576      14.36733706        1       0.00004516      -0.00003144       0.00006533      -9.75804520
O       13.39154096       7.73161601      14.36733702        1       0.00001787      -0.00006757       0.00009084      -9.75803280
O        0.00000050      -0.00000050      16.94849767        2      -0.00000897      -0.00000115       0.00129110      -9.64234352
O        1.91307531       3.31354643      16.94850108        2       0.00000789       0.00001247       0.00117904      -9.64233017
O        3.82615410      -0.00000125      16.94849498        2       0.00001076      -0.00001985       0.00131664      -9.64234447
O        3.82615596       6.62709466      16.94850166        2       0.00000070      -0.00000171       0.00121698      -9.64233685
O        5.73923177       3.31354633      16.94849804        2      -0.00000238       0.00000137       0.00130978      -9.64234638
O        7.65230968       0.00000064      16.94848579        2      -0.00000270       0.00000876       0.00153014      -9.64237881
O        7.65231036       6.62709449      16.94849263        2       0.00000328       0.00000426       0.00140190      -9.64235592
O        9.56538894       3.31354754      16.94849170        2      -0.00000967      -0.00000534       0.00142160      -9.64236355
O       11.47846378       6.62709396      16.94849165        2      -0.00000959       0.00000758       0.00139737      -9.64236832
O        3.82615479       2.20903150      18.90505288        4       0.00001504      -0.00002460      -0.70117396      -9.72500896
O        5.73923219       5.52257875      18.90505288        4       0.00003097      -0.00000200      -0.70119107      -9.72502518
O        7.65230959       2.20903150      18.90505288        4      -0.00000215       0.00000191      -0.70122224      -9.72503185
O        7.65230959       8.83612600      18.90505288        4       0.00002353      -0.00001618      -0.70113885      -9.72501278
O        9.56538698       5.52257875      18.90505288        4      -0.00000264       0.00000847      -0.70117539      -9.72503185
O       11.47846438       2.20903150      18.90505288        4      -0.00002142      -0.00000607      -0.70119393      -9.72500610
O       11.47846438       8.83612600      18.90505288        4      -0.00000527      -0.00000027      -0.70122147      -9.72504139
O       13.39154178       5.52257875      18.90505288        4      -0.00001328       0.00001080      -0.70123994      -9.72501278
O       15.30461917       8.83612600      18.90505288        4      -0.00001181       0.00001187      -0.70125997      -9.72502041
O        1.91307740       1.10451575      20.46707404        5       0.00001414      -0.00004181      -0.55422097      -9.41629696
O        3.82615479       4.41806300      20.46707404        5       0.00005267      -0.00005601      -0.55426311      -9.41631222
O        5.73923219       1.10451575      20.46707404        5      -0.00003319       0.00001745      -0.55426192      -9.41631508
O        5.73923219       7.73161025      20.46707404        5       0.00011435      -0.00000553      -0.55425400      -9.41631126
O        7.65230959       4.41806300      20.46707404        5       0.00003479       0.00003443      -0.55423748      -9.41632080
O        9.56538698       1.10451575      20.46707404        5       0.00001512       0.00006602      -0.55427289      -9.41631699
O        9.56538698       7.73161025      20.46707404        5      -0.00006488      -0.00001764      -0.55422580      -9.41631413
O       11.47846438       4.41806300      20.46707404        5      -0.00008099      -0.00001926      -0.55426329      -9.41631222
O       13.39154178       7.73161025      20.46707404        5      -0.00005022       0.00001894      -0.55431861      -9.41631985
O        0.00000000       0.00000000      22.02909519        7       0.00026802       0.00004501      -0.24737357      -9.13193798
O        1.91307740       3.31354725      22.02909519        7       0.00003356      -0.00020944      -0.24733496      -9.13189507
O        3.82615479       0.00000000      22.02909519        7      -0.00018779       0.00001380      -0.24725029      -9.13198376
O        3.82615479       6.62709450      22.02909519        7       0.00014852      -0.00007795      -0.24774551      -9.13189220
O        5.73923219       3.31354725      22.02909519        7      -0.00005971      -0.00001449      -0.24762464      -9.13204479
O        7.65230959       0.00000000      22.02909519        7      -0.00008335       0.00010538      -0.24784014      -9.13195419
O        7.65230959       6.62709450      22.02909519        7       0.00007428       0.00011063      -0.24759383      -9.13217449
O        9.56538698       3.31354725      22.02909519        7       0.00003417       0.00007143      -0.24778494      -9.13214302
O       11.47846438       6.62709450      22.02909519        7      -0.00022592      -0.00001773      -0.24775556      -9.13203239
O        3.82617279       2.20904488      23.62038299        8      -0.00052041      -0.00038452      -0.17593586      -9.13083839
O        5.73922360       5.52257729      23.62041249        8       0.00013001       0.00001229      -0.17669618      -9.13061714
O        7.65230025       8.83611149      23.62038725        8       0.00021591       0.00048896      -0.17609638      -9.13105488
O        7.65231821       2.20902253      23.62042326        8      -0.00023234       0.00017313      -0.17694582      -9.13053131
O        9.56539211       5.52256555      23.62042428        8      -0.00012654       0.00028432      -0.17702821      -9.13079357
O       11.47843934       2.20904162      23.62039303        8       0.00074263      -0.00028623      -0.17618965      -9.13075256
O       11.47849980       8.83611728      23.62040320        8      -0.00085804       0.00026707      -0.17644992      -9.13048840
O       13.39154565       5.52260412      23.62039545        8      -0.00000383      -0.00067274      -0.17627670      -9.13028336
O       15.30459197       8.83611906      23.62039820        8       0.00065768       0.00014572      -0.17633055      -9.13027287
O        1.91306895       1.10451656      25.22028263       10       0.00021043       0.00000444      -0.07396114      -9.12404823
O        3.82617428       4.41808835      25.22028346       10      -0.00052980      -0.00066513      -0.07408412      -9.12334633
O        5.73922138       7.73158315      25.22029517       10       0.00020038       0.00072997      -0.07440890      -9.12326431
O        5.73927534       1.10451954      25.22029757       10      -0.00110446      -0.00010889      -0.07442535      -9.12317181
O        7.65232280       4.41805547      25.22034986       10      -0.00036815       0.00012475      -0.07576740      -9.12267971
O        9.56535171       1.10453078      25.22029515       10       0.00091351      -0.00042415      -0.07436571      -9.12285709
O        9.56540263       7.73157234      25.22032565       10      -0.00035978       0.00104031      -0.07520729      -9.12333679
O       11.47843245       4.41808552      25.22031214       10       0.00089013      -0.00060512      -0.07480861      -9.12312794
O       13.39153773       7.73161231      25.22027589       10       0.00014685      -0.00007750      -0.07391866      -9.12284088
O       -0.00000707      -0.00000737      26.81133539       11       0.00027512       0.00023587      -0.05575931      -9.12099934
O        1.91306317       3.31357058      26.81135042       11       0.00051393      -0.00070738      -0.05614553      -9.12123489
O        3.82616803       6.62708280      26.81130853       11      -0.00035091       0.00024002      -0.05510579      -9.12073135
O        3.82617201      -0.00002861      26.81136849       11      -0.00052681       0.00096614      -0.05659077      -9.12085247
O        5.73927762       3.31356653      26.81135099       11      -0.00140195      -0.00058094      -0.05613606      -9.12024784
O        7.65230003       0.00001793      26.81130304       11       0.00024079      -0.00050885      -0.05490004      -9.12041855
O        7.65233721       6.62705214      26.81138225       11      -0.00075114       0.00117422      -0.05683276      -9.11949062
O        9.56535624       3.31359178      26.81135668       11       0.00089104      -0.00117140      -0.05612980      -9.11955643
O       11.47842325       6.62707672      26.81134619       11       0.00110676       0.00039771      -0.05593316      -9.11991787
O        3.82618135       2.20903292      28.40981792       13      -0.00075637      -0.00001011      -0.01023191      -9.15598679
O        5.73930502       5.52255964      28.40980869       13      -0.00196642       0.00057905      -0.00974727      -9.15541840
O        7.65230701       2.20909667      28.40979550       13      -0.00004867      -0.00180619      -0.00941737      -9.15558052
O        7.65234623       8.83606777      28.40982823       13      -0.00095243       0.00156832      -0.01031747      -9.15549660
O        9.56534890       5.52258196      28.40981275       13       0.00098731       0.00008908      -0.00972807      -9.15465164
O       11.47841884       8.83610744      28.40979900       13       0.00118070       0.00051130      -0.00959346      -9.15598679
O       11.47843839       2.20907537      28.40980763       13       0.00083298      -0.00115206      -0.00988838      -9.15604973
O       13.39150378       5.52256717      28.40979979       13       0.00100496       0.00031048      -0.00965863      -9.15619183
O       15.30462584       8.83612941      28.40977893       13      -0.00021109      -0.00007858      -0.00911921      -9.15695572
O        1.91308805       1.10450043      30.03859918       14      -0.00014941       0.00033294       0.00374507      -8.93224049
O        3.82616330       4.41806696      30.03857548       14      -0.00035826       0.00004207       0.00419583      -8.93249607
O        5.73922875       1.10451601      30.03857640       14       0.00000363      -0.00017610       0.00453409      -8.93252373
O        5.73926864       7.73159791      30.03857817       14      -0.00099331       0.00050127       0.00445262      -8.93251705
O        7.65232836       4.41807706      30.03851864       14      -0.00036669      -0.00040014       0.00614737      -8.93205833
O        9.56537411       7.73160144      30.03854889       14       0.00037619       0.00056038       0.00544718      -8.93186760
O        9.56538400       1.10454748      30.03858014       14       0.00013376      -0.00080468       0.00436786      -8.93287659
O       11.47843822       4.41807932      30.03854889       14       0.00069570      -0.00034770       0.00508296      -8.93220711
O       13.39151912       7.73160350      30.03859601       14       0.00061350       0.00030797       0.00405458      -8.93296528
O        0.00002487       0.00000422      31.64060427       16      -0.00060720      -0.00006529       0.00178194      -7.50185585
O        1.91307956       3.31355583      31.64059045       16      -0.00006367       0.00009088       0.00185776      -7.50166798
O        3.82614351      -0.00000002      31.64061595       16       0.00029064       0.00006290       0.00205195      -7.50150204
O        3.82615784       6.62707757      31.64060616       16      -0.00011591       0.00043901       0.00171769      -7.50185966
O        5.73922860       3.31355962      31.64058126       16       0.00007505      -0.00006906       0.00193441      -7.50182152
O        7.65230278       0.00001134      31.64061466       16       0.00032356      -0.00018555       0.00165296      -7.50196934
O        7.65231429       6.62709473      31.64057694       16      -0.00018339      -0.00008775       0.00225317      -7.50174141
O        9.56538714       3.31356104      31.64059369       16      -0.00001478      -0.00030103       0.00206447      -7.50181484
O       11.47845792       6.62708957      31.64058775       16       0.00029540       0.00016011       0.00205624      -7.50175285
O        3.82615024       2.20895357      33.17104786       17      -0.00001574      -0.00011874      -0.00648165      -4.13682175
O        5.73922814       5.52258354      33.17104372       17       0.00006246       0.00000346      -0.00625062      -4.13688755
O        7.65232280       8.83617946      33.17103709       17       0.00007962       0.00002929      -0.00614035      -4.13690281
O        7.65233886       2.20897558      33.17104397       17       0.00003274       0.00000765      -0.00630057      -4.13685703
O        9.56539160       5.52257403      33.17103726       17      -0.00001956       0.00001272      -0.00598407      -4.13698673
O       11.47843499       8.83613490      33.17104359       17      -0.00012621      -0.00000993      -0.00638020      -4.13683891
O       11.47844857       2.20900113      33.17104393       17      -0.00000998       0.00000609      -0.00643504      -4.13682222
O       13.39155081       5.52257234      33.17104467       17      -0.00002684      -0.00004119      -0.00643361      -4.13681412
O       15.30459707       8.83612884      33.17105543       17       0.00000362      -0.00001234      -0.00673962      -4.13671398
