81
Lattice="11.478464379001224 0.0 0.0 5.739232189500613 9.940641748649831 0.0 0.0 0.0 38.59111634310893" Properties=species:S:1:pos:R:3:tags:I:1:forces:R:3:energies:R:1 energy=-646.4179077148438 stress="-0.0003174295125063509 6.227328652741448e-10 1.0196628263958729e-10 6.227328652741448e-10 -0.0003174267476424575 -2.808354382377587e-10 1.0196628263958729e-10 -2.808354382377587e-10 -0.00026827651890926063" free_energy=-646.4179077148438 pbc="T T F"
Ce       0.00000525      -0.00004269      14.84353948        0      -0.00009689       0.00070484      -0.00724001      -6.61948442
Ce       1.91310111       3.31355559      14.84354131        0      -0.00046229      -0.00007389      -0.00753866      -6.61952400
Ce       3.82613993      -0.00001066      14.84355008        0       0.00027324       0.00006057      -0.00748269      -6.61944962
Ce       3.82615247       6.62710665      14.84362846        0       0.00001958      -0.00028193      -0.00938887      -6.61947346
Ce       5.73923320       3.31354205      14.84350030        0      -0.00004860       0.00024375      -0.00653869      -6.61948061
Ce       7.65231741      -0.00000351      14.84350852        0      -0.00018240      -0.00006813      -0.00660455      -6.61945534
Ce       7.65231088       6.62711514      14.84361006        0      -0.00001263      -0.00039716      -0.00893017      -6.61946201
Ce       9.56536407       3.31355544      14.84351507        0       0.00050904      -0.00000153      -0.00693967      -6.61952877
Ce      11.47846569       6.62710187      14.84367996        0      -0.00003075      -0.00009004      -0.01052062      -6.61950350
Ce       3.82612301       2.20899051      18.31610161        3       0.00073220       0.00082259       0.00338137      -7.24676275
Ce       5.73923016       5.52270657      18.31610962        3       0.00006775      -0.00260847       0.00366488      -7.24665451
Ce       7.65231556       2.20901799      18.31610104        3      -0.00014839       0.00028686       0.00326905      -7.24681854
Ce       7.65231843       8.83605341      18.31618734        3      -0.00020306       0.00144192       0.00257725      -7.24654865
Ce       9.56542670       5.52270290      18.31611166        3      -0.00082764      -0.00256698       0.00373840      -7.24658442
Ce      11.47849046       2.20902217      18.31610661        3      -0.00057870       0.00016792       0.00306350      -7.24672794
Ce      11.47843852       8.83600739      18.31615935        3       0.00054441       0.00249722       0.00292829      -7.24656487
Ce      13.39150534       5.52268490      18.31609144        3       0.00077520      -0.00213384       0.00407502      -7.24657822
Ce      15.30463845       8.83602773      18.31616889        3      -0.00038455       0.00204856       0.00276324      -7.24660587
Ce       1.91306685       1.10455688      21.37802433        6       0.00018899      -0.00053333       1.48664153      -7.93809652
Ce       3.82615886       4.41804812      21.37802835        6      -0.00012301       0.00033967       1.48597455      -7.93811989
Ce       5.73922477       7.73159504      21.37807305        6       0.00009083       0.00004640       1.48642480      -7.93811703
Ce       5.73923584       1.10454418      21.37802484        6      -0.00009119      -0.00041778       1.48631287      -7.93812466
Ce       7.65230365       4.41803516      21.37803214        6       0.00008680       0.00050161       1.48602664      -7.93811703
Ce       9.56538971       1.10455275      21.37802941        6      -0.00007207      -0.00049469       1.48636448      -7.93810606
Ce       9.56539692       7.73160127      21.37806311        6      -0.00009946       0.00000050       1.48659754      -7.93811512
Ce      11.47846688       4.41803364      21.37804205        6       0.00002940       0.00057008       1.48607147      -7.93811178
Ce      13.39154370       7.73160407      21.37806412        6      -0.00003521      -0.00006737       1.48639214      -7.93811512
O        3.82615001       2.20903743      14.40821249        1       0.00012354      -0.00014813       0.01109314      -9.74209881
O        5.73923092       5.52257780      14.40819939        1       0.00003288      -0.00002750       0.01129751      -9.74199295
O        7.65231393       2.20904205      14.40821474        1      -0.00010586      -0.00015540       0.01101891      -9.74213982
O        7.65230288       8.83612520      14.40820605        1       0.00008351       0.00001942       0.01110747      -9.74210644
O        9.56539072       5.52257625      14.40819701        1      -0.00007678       0.00004858       0.01133351      -9.74198437
O       11.47846380       2.20903581      14.40820338        1      -0.00000481      -0.00013268       0.01126290      -9.74199295
O       11.47846534       8.83612134      14.40820189        1      -0.00000821       0.00019062       0.01126055      -9.74201488
O       13.39153907       5.52257488      14.40819731        1       0.00006549       0.00004652       0.01136041      -9.74197388
O       15.30462152       8.83612357      14.40820597        1      -0.00008138       0.00006642       0.01113376      -9.74208450
O        1.91307847       3.31354203      16.96747781        2      -0.00003905      -0.00000578      -0.01541507      -9.52471733
O        3.82615643       6.62708478      16.96740741        2      -0.00001046       0.00017880      -0.01367044      -9.52496243
O        5.73923288       3.31354459      16.96751755        2      -0.00000460      -0.00000517      -0.01631421      -9.52459335
O        5.73923022       9.94065394      16.96749042        2       0.00004962      -0.00017020      -0.01552898      -9.52463818
O        7.65230622       6.62708461      16.96742972        2       0.00002792       0.00020487      -0.01406825      -9.52490902
O        9.56538364       3.31354086      16.96749874        2       0.00004394       0.00004661      -0.01593888      -9.52462673
O        9.56539115       9.94065404      16.96748585        2      -0.00006202      -0.00017751      -0.01534027      -9.52468777
O       11.47846544       6.62709211      16.96736070        2      -0.00002174       0.00011059      -0.01262885      -9.52509785
O       13.39153933       9.94065193      16.96751913        2       0.00001487      -0.00015770      -0.01619011      -9.52457905
O        1.91307740       1.10451575      18.90505288        4      -0.00003260      -0.00023730      -0.67785281      -9.71922588
O        3.82615479       4.41806300      18.90505288        4      -0.00012975       0.00029516      -0.67824942      -9.71901226
O        5.73923219       1.10451575      18.90505288        4      -0.00008502      -0.00033660      -0.67795008      -9.71907520
O        5.73923219       7.73161025      18.90505288        4       0.00005281      -0.00001138      -0.67781222      -9.71941662
O        7.65230959       4.41806300      18.90505288        4       0.00008849       0.00037743      -0.67814493      -9.71901894
O        9.56538698       1.10451575      18.90505288        4       0.00011705      -0.00020924      -0.67792445      -9.71909237
O        9.56538698       7.73161025      18.90505288        4       0.00005595      -0.00006034      -0.67785001      -9.71946907
O       11.47846438       4.41806300      18.90505288        4       0.00003824       0.00032783      -0.67819047      -9.71914196
O       13.39154178       7.73161025      18.90505288        4      -0.00008271      -0.00014169      -0.67794693      -9.71938229
O        3.82615397       2.20903258      20.50378298        5      -0.00008629      -0.00008284      -0.70156467      -9.31774235
O        5.73923205       5.52259413      20.50377370        5       0.00000836      -0.00000104      -0.70154160      -9.31767941
O        7.65230792       8.83610556      20.50378812        5       0.00003805       0.00015018      -0.70167744      -9.31766129
O        7.65230835       2.20903416      20.50378652        5       0.00002694      -0.00003944      -0.70152164      -9.31776237
O        9.56539012       5.52259155      20.50377070        5       0.00003489       0.00002430      -0.70157617      -9.31765747
O       11.47846080       8.83611066      20.50378629        5       0.00000116      -0.00002840      -0.70170724      -9.31767750
O       11.47846426       2.20903575      20.50377631        5       0.00006226      -0.00007692      -0.70148051      -9.31781673
O       13.39153936       5.52258985      20.50376740        5      -0.00004920       0.00004344      -0.70158952      -9.31764984
O       15.30461977       8.83611046      20.50377842        5       0.00000560       0.00006205      -0.70154613      -9.31767273
O        0.00000280      -0.00002275      22.09944946        7      -0.00003342       0.00034326      -0.27272737      -7.50778770
O        1.91307546       3.31354829      22.09945040        7       0.00002370      -0.00003170      -0.27275610      -7.50800991
O        3.82615740       6.62711270      22.09943936        7      -0.00005650      -0.00026751      -0.27261508      -7.50789165
O        3.82616011      -0.00001815      22.09944337        7      -0.00007332       0.00027697      -0.27270579      -7.50776291
O        5.73922489       3.31354099      22.09945269        7       0.00003072       0.00005773      -0.27275217      -7.50798607
O        7.65230273      -0.00001348      22.09944647        7       0.00006925       0.00022753      -0.27272153      -7.50779724
O        7.65230925       6.62711700      22.09943544        7       0.00002976      -0.00033295      -0.27258480      -7.50782013
O        9.56539471       3.31354768      22.09945006        7      -0.00005324      -0.00002957      -0.27275670      -7.50800514
O       11.47846122       6.62711216      22.09944102        7       0.00005198      -0.00024124      -0.27259111      -7.50784588
O        1.91307450       1.10452117      23.59429041        8      -0.00000219      -0.00002754       0.17421162      -4.20833540
O        3.82616451       4.41805910      23.59428775        8       0.00000853       0.00001308       0.17431438      -4.20834541
O        5.73922549       7.73161640      23.59426431        8       0.00000814       0.00001523       0.17462277      -4.20843410
O        5.73923471       1.10452016      23.59428850        8       0.00000518      -0.00002446       0.17425632      -4.20832920
O        7.65230626       4.41805828      23.59428244        8      -0.00000127       0.00002964       0.17429590      -4.20836782
O        9.56539063       7.73161002      23.59426920        8      -0.00000393       0.00000379       0.17456794      -4.20841217
O        9.56539525       1.10451764      23.59428693        8       0.00000395      -0.00003760       0.17423487      -4.20835018
O       11.47846532       4.41806270      23.59428255        8      -0.00000605       0.00002849       0.17441905      -4.20837784
O       13.39153371       7.73160802      23.59426858        8      -0.00001315       0.00001213       0.17455697      -4.20842075
