162
Lattice="11.478464379001224 0.0 0.0 0.0 11.478464379001224 0.0 0.0 0.0 44.880250000000004" Properties=species:S:1:pos:R:3:tags:I:1:forces:R:3:energies:R:1 energy=-1344.9954833984375 stress="-0.0005920827388763428 5.390257129533893e-10 -1.8748576025018338e-09 5.390257129533893e-10 -0.0005920841940678656 5.983237516549167e-11 -1.8748576025018338e-09 5.983237516549167e-11 6.83182297507301e-05" free_energy=-1344.9954833984375 pbc="T T F"
Ce      -0.00000177      -0.00000113      14.98950942        0       0.00004156       0.00002665       0.00048804      -6.16363382
Ce      -0.00000193       3.82615368      14.98950570        0       0.00004174       0.00000555       0.00054726      -6.16363430
Ce       0.00000130       7.65231159      14.98950445        0      -0.00002068      -0.00003168       0.00053996      -6.16363239
Ce       3.82615587       0.00000446      14.98950791        0      -0.00002570      -0.00009174       0.00052434      -6.16363525
Ce       3.82615748       3.82615354      14.98950509        0      -0.00004414       0.00002382       0.00055027      -6.16362762
Ce       3.82615394       7.65230788      14.98950490        0       0.00001596       0.00003040       0.00054166      -6.16363287
Ce       7.65231081       0.00000072      14.98950980        0      -0.00001726      -0.00000992       0.00048000      -6.16362524
Ce       7.65231127       3.82615301      14.98951040        0      -0.00002215       0.00004448       0.00046910      -6.16363382
Ce       7.65230914       7.65231106      14.98950779        0       0.00001357      -0.00002940       0.00051861      -6.16363382
Ce       1.91307709       1.91307865      17.70105915        2      -0.00000483      -0.00002423       0.00810304      -7.45683002
Ce       1.91307988       5.73923302      17.70106166        2      -0.00004220      -0.00003207       0.00803071      -7.45683050
Ce       1.91307558       9.56538377      17.70106045        2       0.00003614       0.00006011       0.00806767      -7.45683002
Ce       5.73923208       1.91307755      17.70105669        2       0.00000992      -0.00000740       0.00814611      -7.45682812
Ce       5.73922869       5.73923193      17.70105722        2       0.00005950       0.00000681       0.00812253      -7.45683002
Ce       5.73923308       9.56538697      17.70105654        2      -0.00002025      -0.00000611       0.00812635      -7.45683146
Ce       9.56538652       1.91307731      17.70105755        2       0.00000043       0.00000261       0.00815085      -7.45682669
Ce       9.56538884       5.73923115      17.70105763        2      -0.00002030       0.00001928       0.00812927      -7.45683289
Ce       9.56538691       9.56538851      17.70105708        2      -0.00001162      -0.00003074       0.00814459      -7.45682669
Ce       0.00000000       3.82615479      20.41100000        4       0.00000330       0.00001065       0.81264699      -7.71027422
Ce       0.00000000       7.65230959      20.41100000        4      -0.00002158      -0.00000711       0.81266940      -7.71027422
Ce       0.00000000      11.47846438      20.41100000        4       0.00000018      -0.00000601       0.81256998      -7.71027040
Ce       3.82615479       3.82615479      20.41100000        4      -0.00000237      -0.00000526       0.81268698      -7.71027422
Ce       3.82615479       7.65230959      20.41100000        4      -0.00000654       0.00001084       0.81268245      -7.71027136
Ce       3.82615479      11.47846438      20.41100000        4       0.00001517      -0.00000627       0.81260216      -7.71027517
Ce       7.65230959       3.82615479      20.41100000        4      -0.00000913       0.00002408       0.81260926      -7.71027660
Ce       7.65230959       7.65230959      20.41100000        4       0.00002737      -0.00000710       0.81261700      -7.71028090
Ce       7.65230959      11.47846438      20.41100000        4      -0.00002156      -0.00001913       0.81255651      -7.71027327
Ce       1.91307391       9.56540081      23.19653124        6       0.00008435      -0.00031672       0.39578807      -7.83811188
Ce       1.91307403       5.73923304      23.19652145        6       0.00007577      -0.00003495       0.39604539      -7.83813810
Ce       1.91307451       1.91306251      23.19652328        6       0.00008005       0.00036113       0.39596775      -7.83812046
Ce       5.73923805       9.56539081      23.19653171        6      -0.00013948      -0.00009682       0.39573368      -7.83810568
Ce       5.73924041       1.91306760      23.19652568        6      -0.00018919       0.00023301       0.39589754      -7.83811712
Ce       5.73924069       5.73923714      23.19652559        6      -0.00021630      -0.00012617       0.39591312      -7.83812189
Ce       9.56538093       5.73923005      23.19652669        6       0.00014959       0.00002322       0.39590040      -7.83812666
Ce       9.56538303       1.91306833      23.19652398        6       0.00010644       0.00025392       0.39590785      -7.83810902
Ce       9.56538347       9.56539932      23.19653240        6       0.00006746      -0.00026180       0.39572480      -7.83810425
Ce      -0.00000086       3.82615950      25.99080762        8       0.00004330      -0.00009713       0.14263560      -7.75853348
Ce       0.00000188       7.65231287      25.99080798        8      -0.00000087      -0.00008892       0.14266257      -7.75851965
Ce       0.00000386      11.47845428      25.99078341        8      -0.00007188       0.00021942       0.14321454      -7.75851250
Ce       3.82615236      11.47845845      25.99079439        8       0.00002679       0.00014957       0.14296015      -7.75851250
Ce       3.82615798       3.82615898      25.99081677        8      -0.00010215      -0.00007325       0.14241855      -7.75852633
Ce       3.82616413       7.65231321      25.99081219        8      -0.00022505      -0.00007574       0.14252181      -7.75851059
Ce       7.65230291       7.65230922      25.99079907        8       0.00018468       0.00001018       0.14281814      -7.75850344
Ce       7.65230724       3.82616167      25.99079997        8       0.00004801      -0.00015876       0.14278515      -7.75851536
Ce       7.65230726      11.47845914      25.99077644        8       0.00001827       0.00014227       0.14331269      -7.75851679
Ce       1.91307871       1.91308310      28.74687352       10      -0.00006257      -0.00008856       0.02808020      -8.11800385
Ce       1.91307936       9.56538332      28.74687114       10      -0.00000517       0.00007987       0.02815145      -8.11800003
Ce       1.91307994       5.73923515      28.74686381       10      -0.00005678      -0.00000916       0.02823055      -8.11798382
Ce       5.73922586       1.91308190      28.74686646       10       0.00003744      -0.00008596       0.02811331      -8.11800575
Ce       5.73923166       9.56538224      28.74686447       10       0.00005758       0.00015629       0.02820134      -8.11800003
Ce       5.73923176       5.73923708      28.74686040       10       0.00005638      -0.00004410       0.02830729      -8.11798191
Ce       9.56538596       1.91307602      28.74687382       10      -0.00002468      -0.00008325       0.02801019      -8.11801720
Ce       9.56538632       9.56537934      28.74686499       10      -0.00001712       0.00011151       0.02809715      -8.11801147
Ce       9.56538667       5.73922810      28.74686666       10       0.00000808      -0.00002034       0.02818057      -8.11799622
O        1.91307703      -0.00000089      16.07192687        1       0.00000840       0.00000540      -0.00624993      -9.63386631
O        1.91307645       3.82615508      16.07192524        1       0.00002485      -0.00000913      -0.00627530      -9.63386726
O        1.91307689       7.65230968      16.07192306        1       0.00000364      -0.00000115      -0.00623575      -9.63387203
O        3.82615529       1.91307546      16.07192471        1       0.00000173       0.00004014      -0.00622442      -9.63387966
O        3.82615409       5.73923132      16.07192526        1       0.00001358       0.00000248      -0.00625485      -9.63387871
O        3.82615482       9.56538625      16.07192598        1       0.00000589       0.00001133      -0.00627190      -9.63386631
O        5.73923272      -0.00000051      16.07192560        1       0.00001214       0.00001023      -0.00623938      -9.63387775
O        5.73923421       3.82615591      16.07192570        1      -0.00002907      -0.00001406      -0.00624779      -9.63387775
O        5.73923294       7.65230935      16.07192612        1      -0.00002465      -0.00000186      -0.00625336      -9.63387680
O        7.65230935       1.91307875      16.07192629        1       0.00000353      -0.00003726      -0.00621560      -9.63388443
O        7.65230951       5.73923137      16.07192702        1      -0.00000026       0.00001385      -0.00625253      -9.63386822
O        7.65230899       9.56538584      16.07192675        1       0.00001145       0.00001736      -0.00623733      -9.63387871
O        9.56538729      -0.00000029      16.07192659        1      -0.00002463       0.00000558      -0.00622621      -9.63388443
O        9.56538463       3.82615517      16.07192574        1       0.00003891      -0.00001184      -0.00623628      -9.63388157
O        9.56538646       7.65230911      16.07192587        1       0.00000734       0.00001047      -0.00626120      -9.63387680
O       11.47846523       1.91307666      16.07192709        1      -0.00001066       0.00001046      -0.00624940      -9.63387489
O       11.47846507       5.73923209      16.07192514        1      -0.00001025       0.00000577      -0.00626048      -9.63386822
O       11.47846488       9.56538755      16.07192563        1      -0.00001575      -0.00002173      -0.00623232      -9.63387775
O        0.00000021       1.91307588      18.94910539        3      -0.00000486       0.00001127       0.00829643      -9.38654137
O       -0.00000020       5.73923125      18.94910228        3       0.00000281       0.00000784       0.00831641      -9.38654613
O        0.00000076       9.56538891      18.94910351        3      -0.00001120      -0.00000986       0.00831327      -9.38654709
O        1.91307742       0.00000046      18.94910583        3      -0.00000586      -0.00000247       0.00830182      -9.38653851
O        1.91307681       3.82615460      18.94909966        3       0.00001662      -0.00000758       0.00832875      -9.38654995
O        1.91307686       7.65230998      18.94910094        3      -0.00000039      -0.00000455       0.00833169      -9.38655472
O        3.82615508       1.91307553      18.94910399        3      -0.00000097       0.00001580       0.00830048      -9.38654613
O        3.82615403       5.73923195      18.94909987        3       0.00000574       0.00000300       0.00832786      -9.38655281
O        3.82615404       9.56538784      18.94910291        3       0.00000583      -0.00001268       0.00831577      -9.38654041
O        5.73923304      -0.00000086      18.94910542        3       0.00000032       0.00000714       0.00829902      -9.38654232
O        5.73923411       3.82615480      18.94910236        3      -0.00001912       0.00000092       0.00830601      -9.38654613
O        5.73923434       7.65231013      18.94910413        3      -0.00002546      -0.00000262       0.00829539      -9.38654327
O        7.65230873       1.91307673      18.94910757        3       0.00000320      -0.00000262       0.00828227      -9.38654041
O        7.65231061       5.73923295      18.94910589        3      -0.00001378      -0.00000885       0.00829628      -9.38653564
O        7.65230859       9.56538705      18.94910564        3       0.00001272       0.00001157       0.00829397      -9.38653660
O        9.56538637      -0.00000040      18.94910629        3      -0.00000187       0.00000113       0.00829378      -9.38654327
O        9.56538557       3.82615458      18.94910305        3       0.00000684      -0.00000652       0.00830361      -9.38654232
O        9.56538510       7.65230961      18.94910250        3       0.00002377       0.00000926       0.00830209      -9.38654137
O        0.00000000       1.91307740      21.76375000        5      -0.00002050      -0.00003726      -0.51776707      -9.17988682
O        0.00000000       5.73923219      21.76375000        5      -0.00002568      -0.00000102      -0.51780683      -9.17987919
O        0.00000000       9.56538698      21.76375000        5      -0.00001189       0.00004317      -0.51774818      -9.17987347
O        1.91307740       0.00000000      21.76375000        5      -0.00001034      -0.00000918      -0.51774776      -9.17991257
O        1.91307740       3.82615479      21.76375000        5      -0.00001263      -0.00003286      -0.51782799      -9.17986393
O        1.91307740       7.65230959      21.76375000        5      -0.00000932       0.00003328      -0.51781362      -9.17986107
O        3.82615479       1.91307740      21.76375000        5       0.00000828      -0.00003340      -0.51779133      -9.17987061
O        3.82615479       5.73923219      21.76375000        5       0.00002604       0.00000690      -0.51782155      -9.17986774
O        3.82615479       9.56538698      21.76375000        5       0.00001401       0.00002602      -0.51776224      -9.17986107
O        5.73923219       0.00000000      21.76375000        5       0.00002455      -0.00001471      -0.51775163      -9.17989159
O        5.73923219       3.82615479      21.76375000        5       0.00002663      -0.00001610      -0.51779020      -9.17986488
O        5.73923219       7.65230959      21.76375000        5       0.00001911       0.00002918      -0.51776248      -9.17987728
O        7.65230959       1.91307740      21.76375000        5       0.00001508      -0.00002848      -0.51775259      -9.17989826
O        7.65230959       5.73923219      21.76375000        5      -0.00000416      -0.00000098      -0.51777172      -9.17989349
O        7.65230959       9.56538698      21.76375000        5       0.00000200       0.00003048      -0.51773596      -9.17988205
O        9.56538698       0.00000000      21.76375000        5      -0.00001161       0.00000330      -0.51772594      -9.17990017
O        9.56538698       3.82615479      21.76375000        5      -0.00001198      -0.00003225      -0.51778197      -9.17987442
O        9.56538698       7.65230959      21.76375000        5      -0.00000994       0.00003413      -0.51777220      -9.17985725
O        0.00000079       9.56538278      24.51114568        7      -0.00001619       0.00008804      -0.14458011      -9.10621071
O        0.00000135       5.73923156      24.51114581        7      -0.00005147       0.00002447      -0.14458339      -9.10613537
O        0.00000324       1.91308246      24.51114953        7      -0.00003933      -0.00011552      -0.14463814      -9.10615349
O        1.91307825       3.82615637      24.51114669        7      -0.00001814      -0.00004315      -0.14460459      -9.10609913
O        1.91307864       7.65230538      24.51114630        7      -0.00000300       0.00009229      -0.14456873      -9.10611725
O        1.91307875       0.00000297      24.51114637        7      -0.00002685      -0.00005827      -0.14457841      -9.10624313
O        3.82615184       5.73922873      24.51114470        7       0.00007467       0.00005918      -0.14456466      -9.10610962
O        3.82615368       9.56538526      24.51114523        7       0.00003189       0.00005344      -0.14456946      -9.10617447
O        3.82615469       1.91308167      24.51114801        7       0.00001127      -0.00009931      -0.14461623      -9.10612392
O        5.73922934       7.65230654      24.51114574        7       0.00006061       0.00005168      -0.14455304      -9.10618782
O        5.73922947       3.82615576      24.51114680        7       0.00008210      -0.00000429      -0.14459766      -9.10613537
O        5.73923056       0.00000238      24.51114649        7       0.00003541      -0.00005601      -0.14458308      -9.10622597
O        7.65230839       1.91307901      24.51114724        7       0.00002370      -0.00005664      -0.14461286      -9.10619640
O        7.65230880       9.56538627      24.51114548        7       0.00000002       0.00002514      -0.14457476      -9.10622787
O        7.65231126       5.73923195      24.51114540        7      -0.00001654       0.00003040      -0.14454402      -9.10619926
O        9.56538734       0.00000248      24.51114799        7      -0.00001182      -0.00003518      -0.14461263      -9.10624599
O        9.56538868       7.65230888      24.51114662        7      -0.00005310       0.00005112      -0.14457881      -9.10614586
O        9.56538925       3.82615719      24.51114678        7      -0.00006598      -0.00003555      -0.14460853      -9.10614777
O       -0.00000189       1.91307928      27.28465623        9       0.00001955      -0.00007121      -0.03019910      -9.00499439
O        0.00000014       9.56538815      27.28465681        9       0.00001159       0.00002038      -0.03022438      -9.00505638
O        0.00000031       5.73923059      27.28465279        9       0.00000471       0.00003329      -0.03010112      -9.00506687
O        1.91307442       7.65231223      27.28465283        9       0.00005938      -0.00001317      -0.03012912      -9.00507259
O        1.91307462       3.82615368      27.28464791        9       0.00002284       0.00004048      -0.03004426      -9.00506306
O        1.91307992      11.47846478      27.28466011        9      -0.00001860      -0.00002130      -0.03028534      -9.00501823
O        3.82615373       5.73923222      27.28465116        9       0.00002045       0.00007398      -0.03006288      -9.00510311
O        3.82615387       9.56538841      27.28465493        9       0.00002312      -0.00005599      -0.03018346      -9.00507927
O        3.82615408       1.91308100      27.28465149        9      -0.00000111      -0.00003606      -0.03011296      -9.00504494
O        5.73923026       3.82615570      27.28464966        9       0.00004629       0.00004741      -0.03008568      -9.00508404
O        5.73923163      11.47846421      27.28465958        9      -0.00000651      -0.00001841      -0.03028929      -9.00501823
O        5.73923238       7.65231029      27.28465355        9       0.00002689      -0.00000902      -0.03014583      -9.00513077
O        7.65230973       1.91307697      27.28465704        9      -0.00003392       0.00000167      -0.03024682      -9.00499535
O        7.65231199       9.56538934      27.28465685        9      -0.00004821      -0.00006383      -0.03028031      -9.00504780
O        7.65231309       5.73923170      27.28465601        9      -0.00005647       0.00003761      -0.03021067      -9.00508976
O        9.56538467      11.47846636      27.28466054        9       0.00002199      -0.00004457      -0.03032519      -9.00498867
O        9.56538902       3.82615176      27.28465378        9      -0.00005331       0.00004625      -0.03014934      -9.00504875
O        9.56539020       7.65230925      27.28465501        9      -0.00005818      -0.00001360      -0.03019047      -9.00505161
O       -0.00000526       1.91307782      30.01268263       11       0.00002103       0.00000389      -0.00355089      -5.88778782
O       -0.00000498       5.73923532      30.01268579       11       0.00003098       0.00000717      -0.00358677      -5.88777447
O       -0.00000358       9.56538563      30.01268401       11       0.00002387       0.00000450      -0.00354099      -5.88777161
O        1.91307492      11.47845955      30.01268082       11       0.00000477       0.00000628      -0.00353920      -5.88777637
O        1.91307648       7.65231069      30.01268182       11       0.00000567      -0.00002429      -0.00357854      -5.88780689
O        1.91307896       3.82615833      30.01268193       11       0.00000816       0.00003261      -0.00358379      -5.88780499
O        3.82615185       1.91307754      30.01268459       11       0.00001517      -0.00000998      -0.00358212      -5.88780022
O        3.82615765       5.73922482      30.01268673       11       0.00001775      -0.00000989      -0.00360298      -5.88777733
O        3.82616301       9.56538905      30.01268249       11       0.00001394       0.00000636      -0.00356627      -5.88778782
O        5.73923203       3.82615606      30.01268481       11       0.00000754       0.00004297      -0.00359035      -5.88777447
O        5.73923349       7.65231430      30.01268732       11      -0.00000852      -0.00002074      -0.00360751      -5.88779163
O        5.73923857      11.47846932      30.01268655       11       0.00000107      -0.00000179      -0.00355113      -5.88774490
O        7.65229869       1.91307409      30.01268352       11      -0.00002480      -0.00000022      -0.00355875      -5.88776779
O        7.65231401       5.73923132      30.01268382       11      -0.00002708       0.00000551      -0.00358081      -5.88777733
O        7.65231561       9.56539291      30.01268256       11      -0.00001743      -0.00000156      -0.00354874      -5.88776684
O        9.56538614       7.65231008      30.01268336       11      -0.00000579      -0.00005358      -0.00355291      -5.88777447
O        9.56538792      11.47845344      30.01268181       11       0.00000616      -0.00001048      -0.00353050      -5.88776016
O        9.56538869       3.82614216      30.01268355       11       0.00000408       0.00002206      -0.00356281      -5.88779449
