80
Lattice="10.99006386 0.0 0.0 6.247686231748038 9.041455656945073 0.0 0.0 0.0 37.96425768740573" Properties=species:S:1:pos:R:3:tags:I:1:forces:R:3 energy=-583.4884643554688 stress="0.0005716638406738639 -0.00019536328909453005 5.781388949799293e-07 -0.00019536328909453005 -8.910384349292144e-05 7.144342362153111e-07 5.781388949799293e-07 7.144342362153111e-07 -8.978850587482157e-07" free_energy=-583.4884643554688 pbc="T T F"
Fe       1.27015537       0.69496529      18.44359224        4       0.00361425       0.00205836       0.00184005
Fe       1.46344794       0.67244309      15.90717508        1       0.00745352      -0.00253414       0.00121713
Fe       7.49259591       3.93055375      17.40834213        2       0.00062371      -0.00042419      -0.00015131
Fe       3.99975662       1.78608413      16.24363489        1      -0.00113565      -0.00310470      -0.00113695
O        4.98819021       1.29832601      17.97079408        3      -0.00022073      -0.00126791      -0.00003113
O        3.24451186       0.09068345      15.87116539        1      -0.00159283       0.00165236       0.00157696
O        3.72504688       3.62203807      16.22021352        1      -0.00072423      -0.00066986      -0.00081480
O        2.17062417       1.93882702      17.18842558        2      -0.00014503       0.00304338      -0.00037616
O        5.52442637       1.58439192      15.33952802        0      -0.00081178       0.00156492      -0.00201657
O        5.91656820       4.05754393      18.68728430        4       0.00054514       0.00024201      -0.00033035
Fe       4.78407677       2.60469102      22.05704667        8      -0.00061848      -0.00146481       0.00063869
Fe       4.97747630       2.58205507      19.52070413        5      -0.00231880      -0.00235859      -0.00258863
Fe       2.24798033       1.49110784      21.72063893        8      -0.00044042      -0.00253826       0.00125871
Fe       7.37395102       3.86715902      20.55592471        7      -0.00011112       0.00088564       0.00015098
O        3.00318751       3.18618510      22.09310699        8       0.00038128       0.00226769      -0.00057423
O        1.25946405       1.97865743      19.99349037        6       0.00075231       0.00116988       0.00008333
O        4.07712112       1.33821478      20.77580843        7      -0.00084304      -0.00400083       0.00035109
O        5.64644490       4.17572400      21.74400277        8       0.00062841      -0.00027569       0.00081098
O        3.45492772       3.74019628      19.27691473        5      -0.00086340      -0.00047780       0.00072622
O        6.21817504       1.69259664      22.62475190        9       0.00265233      -0.00091269      -0.00028726
Fe       4.39402018       5.21570259      18.44357697        4       0.00302835       0.00228000       0.00199056
Fe       4.58748876       5.19293004      15.90722701        1      -0.00099405       0.00381758      -0.00117761
Fe      10.61649056       8.45129764      17.40841528        2      -0.00042675      -0.00020314      -0.00100037
Fe       7.12357405       6.30680214      16.24363608        1       0.00017947      -0.00144567      -0.00106759
O        8.11203719       5.81903822      17.97088329        3      -0.00052318      -0.00134715      -0.00124471
O        6.36827962       4.61145656      15.87116830        1       0.00040270      -0.00050598       0.00091547
O        6.84891466       8.14277180      16.22021258        1      -0.00095138       0.00023226      -0.00064349
O        5.29439503       6.45949490      17.18845937        2       0.00055331       0.00368455      -0.00059026
O        8.64822571       6.10516141      15.33950636        0       0.00054346       0.00028897      -0.00090495
O        9.04045348       8.57829518      18.68730758        4       0.00023293       0.00002857       0.00002279
Fe       7.90788015       7.12569935      22.05704997        8       0.00086971      -0.00765765       0.00140998
Fe       8.10133633       7.10272771      19.52072074        5      -0.00282899      -0.00169989      -0.00240427
Fe       5.37173905       6.01160691      21.72066112        8       0.00228840       0.00272125      -0.00040959
Fe      10.49776938       8.38792623      20.55590946        7       0.00006541       0.00006642       0.00072250
O        6.12712247       7.70701425      22.09309649        8      -0.00102518       0.00015751      -0.00094697
O        4.38335753       6.49940775      19.99337168        6       0.00035413       0.00152912       0.00127791
O        7.20101549       5.85896827      20.77577124        7      -0.00090096      -0.00350741       0.00139521
O        8.77025847       8.69625735      21.74409269        8       0.00241342       0.00625492      -0.00015974
O        6.57879355       8.26093746      19.27694323        5      -0.00070529      -0.00047219       0.00057271
O        9.34228734       6.21323320      22.62474862        9      -0.00393438       0.00141392       0.00036961
Fe       6.76520447       0.69494177      18.44354089        4       0.00342163       0.00289902       0.00225756
Fe       6.95851693       0.67231044      15.90714826        1       0.00550331       0.00131861       0.00051567
Fe      12.98767144       3.93051669      17.40833215        2      -0.00000510       0.00029993      -0.00029275
Fe       9.49489244       1.78607133      16.24359375        1      -0.00411564      -0.00165505       0.00061734
O       10.48322256       1.29830523      17.97078807        3      -0.00044481      -0.00130394      -0.00020483
O        8.73953448       0.09071907      15.87109174        1      -0.00099790       0.00123116       0.00152397
O        9.22012213       3.62207669      16.22027264        1      -0.00070983      -0.00093898      -0.00087285
O        7.66558896       1.93883694      17.18844229        2       0.00054281       0.00254894      -0.00106845
O       11.01947402       1.58438491      15.33960328        0      -0.00061986       0.00256166      -0.00401342
O       11.41159915       4.05749067      18.68731346        4       0.00092538       0.00069701      -0.00055626
Fe      10.27907177       2.60469240      22.05701320        8      -0.00015768      -0.00224034       0.00142065
Fe      10.47259931       2.58200568      19.52070787        5      -0.00427845      -0.00151554      -0.00251037
Fe       7.74305843       1.49094897      21.72052461        8      -0.00314504       0.00129938       0.00314537
Fe      12.86898142       3.86714069      20.55589905        7      -0.00081099       0.00095956       0.00030214
O        8.49819945       3.18627718      22.09312043        8       0.00082844      -0.00017139      -0.00121036
O        6.75453803       1.97871930      19.99344581        6       0.00003457       0.00120588       0.00003631
O        9.57213009       1.33813717      20.77582948        7       0.00002708      -0.00254440       0.00019801
O       11.14140887       4.17562934      21.74401607        8       0.00160444       0.00130632       0.00042906
O        8.94996912       3.74020443      19.27696111        5       0.00006621      -0.00040130       0.00031448
O       11.71344644       1.69255862      22.62478283        9      -0.00209553       0.00043081       0.00052136
Fe       9.88908262       5.21577470      18.44355035        4       0.00269397       0.00066835       0.00295478
Fe      10.08247314       5.19303034      15.90718693        1       0.00136885       0.00146366      -0.00059128
Fe      16.11148627       8.45128319      17.40829342        2      -0.00006799      -0.00045606      -0.00063139
Fe      12.61855314       6.30685597      16.24367139        1       0.00220913      -0.00286533      -0.00235119
O       13.60704017       5.81904857      17.97082361        3      -0.00037694      -0.00165524      -0.00049971
O       11.86336090       4.61148184      15.87117151        1      -0.00054200      -0.00018904       0.00104570
O       12.34403147       8.14279669      16.22025322        1      -0.00191173      -0.00074770      -0.00034115
O       10.78947868       6.45946353      17.18845101        2       0.00033278       0.00481949      -0.00031079
O       14.14324634       6.10517759      15.33948228        0       0.00089677      -0.00045266       0.00044432
O       14.53545466       8.57820503      18.68734090        4       0.00080217       0.00095943      -0.00095924
Fe      13.40304595       7.12520498      22.05712068        8      -0.00493152       0.00437713      -0.00124374
Fe      13.59637514       7.10274814      19.52065122        5      -0.00286241      -0.00212210      -0.00175554
Fe      10.86678680       6.01166089      21.72064885        8       0.00013292       0.00153062       0.00113960
Fe      15.99282458       8.38794287      20.55591866        7      -0.00062343      -0.00061767       0.00032544
O       11.62209455       7.70695871      22.09307804        8       0.00088562      -0.00014061      -0.00093618
O        9.87840745       6.49941420      19.99344137        6       0.00025623       0.00162388       0.00043893
O       12.69591564       5.85902162      20.77583459        7       0.00027659      -0.00532092      -0.00012856
O       14.26537252       8.69646714      21.74397019        8      -0.00018811      -0.00220268       0.00102958
O       12.07385758       8.26093802      19.27698423        5      -0.00110628      -0.00034390       0.00022134
O       14.83713613       6.21339908      22.62470455        9       0.00171582      -0.00280671       0.00312230
