35
Lattice="8.3155757467538 0.0 0.0 4.1577878733769 7.201499843782543 0.0 0.0 0.0 30.78963916567" Properties=species:S:1:pos:R:3:move_mask:L:1:tags:I:1:forces:R:3 energy=-32398.094316977436 stress="0.0015893308319102507 -0.0 -0.0 -0.0 0.0015884126742950514 -0.0 -0.0 -0.0 -0.006666742443963218" free_energy=-32398.094316977436 pbc="T T T"
Pt       0.00000000       0.00000000      12.00000000  F        4      -0.00037590       0.00057156      -0.82657161
Pt       2.77185858       0.00000000      12.00000000  F        4       0.00208825       0.00196587      -0.82826623
Pt       5.54371716       0.00000000      12.00000000  F        4      -0.00148764       0.00179489      -0.82823949
Pt       1.38592929       2.40049995      12.00000000  F        4       0.00203477       0.00172161      -0.82746507
Pt       4.15778787       2.40049995      12.00000000  F        4       0.00014347       0.00048542      -0.82991636
Pt       6.92964646       2.40049995      12.00000000  F        4      -0.00215973       0.00125804      -0.82785511
Pt       2.77185858       4.80099990      12.00000000  F        4      -0.00003008      -0.00322596      -0.82748076
Pt       5.54371716       4.80099990      12.00000000  F        4      -0.00032242      -0.00354169      -0.82798778
Pt       8.31557575       4.80099990      12.00000000  F        4       0.00038335      -0.00096853      -0.82819372
Pt       1.38592929       0.80016665      14.26321306  F        3       0.00151052       0.00195867       0.82082674
Pt       4.15778787       0.80016665      14.26321306  F        3      -0.00013035       0.00074433       0.82054598
Pt       6.92964646       0.80016665      14.26321306  F        3      -0.00140305       0.00138454       0.81937818
Pt       2.77185858       3.20066660      14.26321306  F        3      -0.00030545       0.00032936       0.82009860
Pt       5.54371716       3.20066660      14.26321306  F        3      -0.00038927       0.00012110       0.82005001
Pt       8.31557575       3.20066660      14.26321306  F        3       0.00061269       0.00275468       0.81889790
Pt       4.15778787       5.60116655      14.26321306  F        3      -0.00035250      -0.00269529       0.82051975
Pt       6.92964646       5.60116655      14.26321306  F        3       0.00248471      -0.00217747       0.82033746
Pt       9.70150504       5.60116655      14.26321306  F        3      -0.00216050      -0.00264901       0.81908765
Pt      -0.00018092       1.60047883      16.62137996  T        2       0.00412225       0.00025634      -0.01288123
Pt       2.77204235       1.60044229      16.62150631  T        2      -0.00205457      -0.00110840      -0.01000056
Pt       5.54369431       1.60031617      16.62156011  T        2      -0.00190879       0.00169384      -0.01137379
Pt       1.38573176       4.00107686      16.62162814  T        2       0.00294108      -0.00441613      -0.01315942
Pt       4.15772948       4.00072765      16.62154202  T        2       0.00111123       0.00013293      -0.01120950
Pt       6.92988856       4.00085189      16.62160122  T        2      -0.00400346       0.00076079      -0.01186487
Pt       2.77164292       6.40128103      16.62143975  T        2       0.00207797      -0.00106958      -0.01396752
Pt       5.54375153       6.40123935      16.62134580  T        2       0.00210162       0.00026611      -0.01121001
Pt       8.31574226       6.40108658      16.62164979  T        2      -0.00420787       0.00358078      -0.01185459
Pt      -0.00016161      -0.00001912      19.00418576  T        1       0.00348667      -0.00007970       0.01982732
Pt       2.77212024      -0.00012751      19.00564114  T        1      -0.00275751      -0.00052682       0.01832065
Pt       5.54359034      -0.00013493      19.00543801  T        1      -0.00074125      -0.00028308       0.02120029
Pt       1.38588498       2.40080231      19.00552500  T        1      -0.00019206      -0.00227003       0.01888012
Pt       6.92961665       2.40066749      19.00545858  T        1       0.00148713       0.00089757       0.02057885
Pt       2.77161155       4.80098837      19.00543807  T        1       0.00110583      -0.00028668       0.02036365
Pt       5.54387520       4.80086607      19.00555371  T        1       0.00072865       0.00244718       0.01863278
Pt       8.31564711       4.80102534      19.00626425  T        1      -0.00211293       0.00017124       0.02167800