36
Lattice="8.3155757467538 0.0 0.0 4.1577878733769 7.201499843782543 0.0 0.0 0.0 30.78963916567" Properties=species:S:1:pos:R:3:move_mask:L:1:tags:I:1:forces:R:3 energy=-32398.094316977436 stress="0.0015893308319102507 -0.0 -0.0 -0.0 0.0015884126742950514 -0.0 -0.0 -0.0 -0.006666742443963218" free_energy=-32398.094316977436 pbc="T T T"
Pt       0.00000000       0.00000000      12.00000000         4     
Pt       2.77185858       0.00000000      12.00000000         4     
Pt       5.54371716       0.00000000      12.00000000         4     
Pt       1.38592929       2.40049995      12.00000000         4     
Pt       4.15778787       2.40049995      12.00000000         4     
Pt       6.92964646       2.40049995      12.00000000         4     
Pt       2.77185858       4.80099990      12.00000000         4     
Pt       5.54371716       4.80099990      12.00000000         4     
Pt       8.31557575       4.80099990      12.00000000         4     
Pt       1.38592929       0.80016665      14.26321306         3     
Pt       4.15778787       0.80016665      14.26321306         3     
Pt       6.92964646       0.80016665      14.26321306         3     
Pt       2.77185858       3.20066660      14.26321306         3     
Pt       5.54371716       3.20066660      14.26321306         3     
Pt       8.31557575       3.20066660      14.26321306         3     
Pt       4.15778787       5.60116655      14.26321306         3     
Pt       6.92964646       5.60116655      14.26321306         3     
Pt       9.70150504       5.60116655      14.26321306         3     
Pt      -0.00018092       1.60047883      16.62137996         2     
Pt       2.77204235       1.60044229      16.62150631         2     
Pt       5.54369431       1.60031617      16.62156011         2     
Pt       1.38573176       4.00107686      16.62162814         2     
Pt       4.15772948       4.00072765      16.62154202         2     
Pt       6.92988856       4.00085189      16.62160122         2     
Pt       2.77164292       6.40128103      16.62143975         2     
Pt       5.54375153       6.40123935      16.62134580         2     
Pt       8.31574226       6.40108658      16.62164979         2     
Pt      -0.00016161      -0.00001912      19.00418576         1     
Pt       2.77212024      -0.00012751      19.00564114         1     
Pt       5.54359034      -0.00013493      19.00543801         1     
Pt       1.38588498       2.40080231      19.00552500         1     
Au       4.15784827       2.40050219      19.00571799         1     
Pt       6.92961665       2.40066749      19.00545858         1     
Pt       2.77161155       4.80098837      19.00543807         1     
Pt       5.54387520       4.80086607      19.00555371         1     
Pt       8.31564711       4.80102534      19.00626425         1     