29
Lattice="8.493 0.0 0.0 4.2465 6.005457892617349 0.0 0.0 0.0 20.003638595078232" Properties=species:S:1:pos:R:3:tags:I:1:forces:R:3:charge:R:1 charge=0 spin=0 energy=-2189.969572945132 free_energy=-2189.969572945132 stress="0.021289292589674647 -0.00015056912380928452 -0.0008314577505208546 -0.00015056912380928452 0.0032385575326803286 -3.6695448338533955e-05 -0.0008314577505208546 -3.6695448338533955e-05 -0.006675447923618054" dipole="-0.05583839788166616 0.07758026449542788 0.39058039627623503" pbc="T T T"
Fe       0.00000000       0.00000000       8.00000000        3      -0.09381206       0.00981226      -0.03468976      -0.00337620
Fe       2.83100000       0.00000000       8.00000000        3      -0.00265055       0.00574341      -0.18345174      -0.00258568
Fe       5.66200000       0.00000000       8.00000000        3       0.09162544       0.01540442      -0.03457735      -0.00472258
Fe       1.41550000       2.00181930       8.00000000        3      -0.02313384       0.02065244      -0.02110311      -0.00378732
Fe       4.24650000       2.00181930       8.00000000        3       0.06039666      -0.00517577       0.03024599      -0.00381325
Fe       7.07750000       2.00181930       8.00000000        3       0.01161790      -0.01582662      -0.06970118      -0.00467734
Fe       2.83100000       4.00363860       8.00000000        3      -0.00634869       0.01230533      -0.20807713      -0.00311724
Fe       5.66200000       4.00363860       8.00000000        3       0.07137364      -0.01233607      -0.04780270      -0.00291726
Fe       8.49300000       4.00363860       8.00000000        3      -0.08872547      -0.04828670      -0.02002477      -0.00401086
Fe       0.00000000       2.00181930      10.00181930        2       0.00327314      -0.09156542      -0.03317404       0.00241479
Fe       2.83100000       2.00181930      10.00181930        2      -0.00920526      -0.03256355      -1.10462780       0.00494163
Fe       5.66200000       2.00181930      10.00181930        2       0.06581098       0.01245076      -0.05734683       0.00208591
Fe       1.41550000       4.00363860      10.00181930        2       0.34782341      -0.08868373      -0.71155043       0.00417695
Fe       4.24650000       4.00363860      10.00181930        2      -0.36787220      -0.12968349      -0.90045184       0.00298340
Fe       7.07750000       4.00363860      10.00181930        2       0.07879106      -0.10468775       0.19149920       0.00259999
Fe       2.83100000       6.00545789      10.00181930        2       0.00088672       0.10914206       0.20243106       0.00278158
Fe       5.66200000       6.00545789      10.00181930        2       0.23871602       0.12320615      -1.00941421       0.00385143
Fe       8.49300000       6.00545789      10.00181930        2      -0.38848225       0.05574098      -0.81822059       0.00364686
Fe       0.28239819       0.14448347      11.85446863        1      -0.35149477       0.02267765       0.60797384       0.00219139
Fe       2.83520669      -0.39858603      11.85524643        1      -0.09839656      -0.45583571       0.42703699      -0.01508027
Fe       5.36030756       0.15818307      11.85448413        1       0.25203094      -0.30033252       0.57575232       0.00370203
Fe       1.69185631       1.99567079      11.95831334        1       0.04720401       0.05855614       0.60171752      -0.00169641
Fe       3.97400324       2.01030553      11.95735519        1      -0.00236439       0.06762949       0.59862233       0.00448935
Fe       7.07262559       2.00899732      12.01387572        1      -0.16579352       0.36065454       3.02414723       0.00825302
Fe       2.83019572       4.40394869      11.85510849        1      -0.20225213       0.55582618       0.05411361      -0.00432359
Fe       5.37676556       3.87270238      11.85322702        1      -0.04271098      -0.36739082       0.70115819      -0.01647578
Fe       8.79793012       3.84489655      11.85537756        1      -0.02118184       0.20388353       0.55795300       0.01095343
N        6.83200701       2.58234028      13.49638149        0       0.00205342      -0.00096786       0.00930687      -0.09135359
H        5.99727892       4.55484331      13.04593447        0       0.00572317       0.00050362      -0.00426828       0.10286559
