37
Lattice="7.708127040155146 0.0 0.0 3.854063520077573 6.675433832372109 0.0 0.0 0.0 22.29365937364323" Properties=species:S:1:pos:R:3:tags:I:1:forces:R:3:charge:R:1 energy=-4491.557029405044 free_energy=-4491.557029405044 stress="-0.013396012136550815 6.943094231225335e-07 3.720321488978826e-07 6.943094231225335e-07 -0.013395889139119509 2.619006886773377e-07 3.720321488978826e-07 2.619006886773377e-07 -0.015596716580118488" dipole="-0.11248969461176267 -0.06484348999817162 0.0861498429001367" pbc="T T F"
Cu       0.00000000       0.00000000       8.00000000        4       0.00397317       0.00228858      -0.26925602       0.01312820
Cu       2.56937568       0.00000000       8.00000000        4       0.00003153      -0.00993070      -0.30091004       0.00389640
Cu       5.13875136       0.00000000       8.00000000        4      -0.00400934       0.00231012      -0.26925645       0.01313639
Cu       1.28468784       2.22514461       8.00000000        4      -0.00858447       0.00495244      -0.30086876       0.00391057
Cu       3.85406352       2.22514461       8.00000000        4       0.00857798       0.00494966      -0.30089380       0.00389738
Cu       6.42343920       2.22514461       8.00000000        4       0.00000106       0.11035920      -0.35621191      -0.00966557
Cu       2.56937568       4.45028922       8.00000000        4       0.00003221      -0.00460074      -0.26923575       0.01313317
Cu       5.13875136       4.45028922       8.00000000        4       0.09557302      -0.05517112      -0.35621643      -0.00966396
Cu       7.70812704       4.45028922       8.00000000        4      -0.09561092      -0.05515841      -0.35621084      -0.00966840
Cu       1.28468784       0.74171487      10.09788646        3       0.00341841       0.00193469      -0.01514883      -0.00020690
Cu       3.85406352       0.74171487      10.09788646        3      -0.00339693       0.00195557      -0.01507323      -0.00021397
Cu       6.42343920       0.74171487      10.09788646        3      -0.00005309      -0.03266958      -0.03817440      -0.00033693
Cu       2.56937568       2.96685948      10.09788646        3       0.00001754      -0.00389983      -0.01506993      -0.00020810
Cu       5.13875136       2.96685948      10.09788646        3       0.04591561       0.02648563      -0.03394102      -0.00406522
Cu       7.70812704       2.96685948      10.09788646        3      -0.04591131       0.02658064      -0.03399876      -0.00406211
Cu       3.85406352       5.19200409      10.09788646        3      -0.02832703       0.01631582      -0.03813885      -0.00033356
Cu       6.42343920       5.19200409      10.09788646        3       0.00005144      -0.05303154      -0.03396780      -0.00406565
Cu       8.99281488       5.19200409      10.09788646        3       0.02824891       0.01633421      -0.03810685      -0.00033771
Cu      -0.00001456       1.48341895      12.22216237        2       0.00124118       0.00703253       0.06319036      -0.00910824
Cu       2.56938632       1.48343972      12.22228812        2      -0.00010209      -0.00001670       0.07927424      -0.00151482
Cu       5.13868200       1.48341490      12.22229490        2      -0.00095718       0.00699729       0.06295261      -0.00910646
Cu       1.28472730       3.70860469      12.22229670        2      -0.00560491      -0.00454546       0.06290227      -0.00910744
Cu       3.85404919       3.70853617      12.22226661        2       0.00552359      -0.00432194       0.06307848      -0.00910719
Cu       6.42343137       3.70855859      12.22219237        2       0.00016210       0.00004088      -0.15755506      -0.00708401
Cu       2.56933175       5.93372331      12.22226822        2       0.00010715       0.00003653       0.07930780       0.00637385
Cu       5.13873976       5.93371007      12.22221793        2       0.00660191      -0.00245544       0.06306367      -0.00911018
Cu       7.70811165       5.93376676      12.22227910        2      -0.00665582      -0.00270715       0.06301391      -0.00910805
Cu       0.00003176       0.00005032      14.34901118        1       0.00835978       0.00465435       0.24140999      -0.00390655
Cu       2.56930125       0.00001804      14.34916312        1       0.00036530       0.13582691       0.25424805      -0.00056369
Cu       5.13864853       0.00002580      14.34922433        1      -0.00806873       0.00470684       0.24102741      -0.00392313
Cu       1.28470809       2.22517124      14.34907163        1       0.11772731      -0.06772409       0.25437381      -0.00054798
Cu       3.85409307       2.22518508      14.34928516        1      -0.11763771      -0.06795681       0.25397341      -0.00056826
Cu       6.42349021       2.22507450      14.34904494        1      -0.00008489      -0.10254795       0.37966084       0.00360077
Cu       2.56959011       4.45037276      14.34913478        1      -0.00062659      -0.00991915       0.24120895      -0.00391216
Cu       5.13896751       4.45026038      14.34907842        1      -0.08975967       0.05156454       0.37947973       0.00361521
Cu       7.70816084       4.45028686      14.34912297        1       0.08944388       0.05153264       0.37940394       0.00360366
H        6.42354734       3.70854598      15.12474164        0       0.00001762      -0.00020242       0.03666528       0.05120067
