37
Lattice="7.708127040155146 0.0 0.0 3.854063520077573 6.675433832372109 0.0 0.0 0.0 22.29365937364323" Properties=species:S:1:pos:R:3:tags:I:1 energy=-240633.5664637463 free_energy=-240633.5664637463 pbc="T T F"
Cu       0.00000000       0.00000000       8.00000000        4
Cu       2.56937568       0.00000000       8.00000000        4
Cu       5.13875136       0.00000000       8.00000000        4
Cu       1.28468784       2.22514461       8.00000000        4
Cu       3.85406352       2.22514461       8.00000000        4
Cu       6.42343920       2.22514461       8.00000000        4
Cu       2.56937568       4.45028922       8.00000000        4
Cu       5.13875136       4.45028922       8.00000000        4
Cu       7.70812704       4.45028922       8.00000000        4
Cu       1.28468784       0.74171487      10.09788646        3
Cu       3.85406352       0.74171487      10.09788646        3
Cu       6.42343920       0.74171487      10.09788646        3
Cu       2.56937568       2.96685948      10.09788646        3
Cu       5.13875136       2.96685948      10.09788646        3
Cu       7.70812704       2.96685948      10.09788646        3
Cu       3.85406352       5.19200409      10.09788646        3
Cu       6.42343920       5.19200409      10.09788646        3
Cu       8.99281488       5.19200409      10.09788646        3
Cu      -0.00001456       1.48341895      12.22216237        2
Cu       2.56938632       1.48343972      12.22228812        2
Cu       5.13868200       1.48341490      12.22229490        2
Cu       1.28472730       3.70860469      12.22229670        2
Cu       3.85404919       3.70853617      12.22226661        2
Cu       6.42343137       3.70855859      12.22219237        2
Cu       2.56933175       5.93372331      12.22226822        2
Cu       5.13873976       5.93371007      12.22221793        2
Cu       7.70811165       5.93376676      12.22227910        2
Cu       0.00003176       0.00005032      14.34901118        1
Cu       2.56930125       0.00001804      14.34916312        1
Cu       5.13864853       0.00002580      14.34922433        1
Cu       1.28470809       2.22517124      14.34907163        1
Cu       3.85409307       2.22518508      14.34928516        1
Cu       6.42349021       2.22507450      14.34904494        1
Cu       2.56959011       4.45037276      14.34913478        1
Cu       5.13896751       4.45026038      14.34907842        1
Cu       7.70816084       4.45028686      14.34912297        1
H        6.42355065       3.70854727      15.27543966        0
