37
Lattice="7.708127040155146 0.0 0.0 3.854063520077573 6.675433832372109 0.0 0.0 0.0 22.29365937364323" Properties=species:S:1:pos:R:3:tags:I:1:forces:R:3:charge:R:1 energy=-4491.530658521316 free_energy=-4491.530658521316 stress="-0.013105379010383082 7.110485366711449e-07 3.9945812835300547e-07 7.110485366711449e-07 -0.013105465515271572 1.303618904460077e-07 3.9945812835300547e-07 1.303618904460077e-07 -0.015026478132700647" dipole="-0.12785788530362133 -0.0737169421457302 0.059782887097817906" pbc="T T F"
Cu       0.00000000       0.00000000       8.00000000        4       0.00210027       0.00120767      -0.26910858       0.01268022
Cu       2.56937568       0.00000000       8.00000000        4       0.00003099      -0.01500986      -0.30031894       0.00421971
Cu       5.13875136       0.00000000       8.00000000        4      -0.00213603       0.00122821      -0.26910829       0.01269011
Cu       1.28468784       2.22514461       8.00000000        4      -0.01298364       0.00749125      -0.30027800       0.00423280
Cu       3.85406352       2.22514461       8.00000000        4       0.01297639       0.00748871      -0.30030209       0.00422104
Cu       6.42343920       2.22514461       8.00000000        4       0.00000159       0.10440512      -0.35430505      -0.00958824
Cu       2.56937568       4.45028922       8.00000000        4       0.00003159      -0.00243729      -0.26908747       0.01268609
Cu       5.13875136       4.45028922       8.00000000        4       0.09041736      -0.05219373      -0.35430949      -0.00958689
Cu       7.70812704       4.45028922       8.00000000        4      -0.09045477      -0.05218123      -0.35430449      -0.00959150
Cu       1.28468784       0.74171487      10.09788646        3       0.00288423       0.00162654      -0.01150514      -0.00046178
Cu       3.85406352       0.74171487      10.09788646        3      -0.00286299       0.00164815      -0.01142979      -0.00046740
Cu       6.42343920       0.74171487      10.09788646        3      -0.00005262      -0.02881722      -0.03874936      -0.00056077
Cu       2.56937568       2.96685948      10.09788646        3       0.00001826      -0.00328372      -0.01142635      -0.00046228
Cu       5.13875136       2.96685948      10.09788646        3       0.04133834       0.02384392      -0.03885746      -0.00360771
Cu       7.70812704       2.96685948      10.09788646        3      -0.04133463       0.02393848      -0.03891413      -0.00360546
Cu       3.85406352       5.19200409      10.09788646        3      -0.02498969       0.01438935      -0.03871322      -0.00055764
Cu       6.42343920       5.19200409      10.09788646        3       0.00005071      -0.04774752      -0.03888373      -0.00360848
Cu       8.99281488       5.19200409      10.09788646        3       0.02491280       0.01440788      -0.03868248      -0.00056155
Cu      -0.00001456       1.48341895      12.22216237        2      -0.00028516       0.00716931       0.07569804      -0.00777155
Cu       2.56938632       1.48343972      12.22228812        2      -0.00010114      -0.00001668       0.08330988      -0.00372883
Cu       5.13868200       1.48341490      12.22229490        2       0.00056952       0.00713553       0.07545773      -0.00776995
Cu       1.28472730       3.70860469      12.22229670        2      -0.00648952      -0.00329126       0.07541087      -0.00777052
Cu       3.85404919       3.70853617      12.22226661        2       0.00640712      -0.00306940       0.07558397      -0.00777027
Cu       6.42343137       3.70855859      12.22219237        2       0.00016266       0.00004043      -0.12127444      -0.00550748
Cu       2.56933175       5.93372331      12.22226822        2       0.00010739       0.00003669       0.08369576       0.00576978
Cu       5.13873976       5.93371007      12.22221793        2       0.00595801      -0.00384755       0.07557125      -0.00777320
Cu       7.70811165       5.93376676      12.22227910        2      -0.00601172      -0.00409941       0.07552074      -0.00777156
Cu       0.00003176       0.00005032      14.34901118        1       0.00923544       0.00515995       0.24031698      -0.00263472
Cu       2.56930125       0.00001804      14.34916312        1       0.00036387       0.13997357       0.25389373       0.00040854
Cu       5.13864853       0.00002580      14.34922433        1      -0.00894526       0.00521540       0.23993369      -0.00265117
Cu       1.28470809       2.22517124      14.34907163        1       0.12131481      -0.06979537       0.25401982       0.00042483
Cu       3.85409307       2.22518508      14.34928516        1      -0.12122731      -0.07002929       0.25362030       0.00040290
Cu       6.42349021       2.22507450      14.34904494        1      -0.00007896       0.06054651       0.47640416      -0.00093077
Cu       2.56959011       4.45037276      14.34913478        1      -0.00062650      -0.01092921       0.24011396      -0.00263911
Cu       5.13896751       4.45026038      14.34907842        1       0.05165876      -0.03008766       0.47633303      -0.00091778
Cu       7.70816084       4.45028686      14.34912297        1      -0.05195200      -0.03011310       0.47623981      -0.00093043
H        6.42355065       3.70854727      15.27543966        0      -0.00000816      -0.00000317      -0.37156524       0.05149102
