28
Lattice="8.493 0.0 0.0 4.2465 6.005457892617349 0.0 0.0 0.0 20.003638595078232" Properties=species:S:1:pos:R:3:tags:I:1:forces:R:3 charge=0 spin=0 energy=-184.64384321878183 free_energy=-184.64384321878183 stress="0.04375690966844559 -0.0014265794306993484 0.00028438642038963735 -0.0014265794306993484 0.028779324144124985 -0.0006793143111281097 0.00028438642038963735 -0.0006793143111281097 0.008088508620858192" pbc="T T T"
Fe       0.00000000       0.00000000       8.00000000        3       0.06638283      -0.02879542       0.52825922
Fe       2.83100000       0.00000000       8.00000000        3      -0.08826551      -0.04493309       0.50701296
Fe       5.66200000       0.00000000       8.00000000        3       0.04080504      -0.00703018       0.36934045
Fe       1.41550000       2.00181930       8.00000000        3       0.05538532      -0.03154558       0.50038379
Fe       4.24650000       2.00181930       8.00000000        3      -0.05536511      -0.04595215       0.49607542
Fe       7.07750000       2.00181930       8.00000000        3       0.03680748      -0.01722600       0.35434583
Fe       2.83100000       4.00363860       8.00000000        3       0.09552764      -0.04204128       0.51113695
Fe       5.66200000       4.00363860       8.00000000        3      -0.05684586      -0.04298278       0.52407569
Fe       8.49300000       4.00363860       8.00000000        3       0.03872292      -0.00566227       0.35055876
Fe       0.00000000       2.00181930      10.00181930        2       0.07013129       0.20941192      -0.52583277
Fe       2.83100000       2.00181930      10.00181930        2      -0.00665644      -0.01064789       0.00660407
Fe       5.66200000       2.00181930      10.00181930        2      -0.18202938      -0.14843279      -1.02711606
Fe       1.41550000       4.00363860      10.00181930        2       0.12399489       0.23677281      -0.55500329
Fe       4.24650000       4.00363860      10.00181930        2      -0.06900859      -0.02776600       0.12066071
Fe       7.07750000       4.00363860      10.00181930        2      -0.02556905      -0.10785396      -0.92448157
Fe       2.83100000       6.00545789      10.00181930        2       0.11644953       0.28318647      -0.54919672
Fe       5.66200000       6.00545789      10.00181930        2      -0.03686457      -0.06224656       0.17436185
Fe       8.49300000       6.00545789      10.00181930        2      -0.10028967      -0.17230490      -0.87666422
Fe      -0.41806532      -0.67788654      11.89977564        1      -0.00590712       0.00286911       0.02236474
Fe       3.18604425       0.47089191      11.83844421        1      -0.00059662      -0.00606572      -0.02129992
Fe       5.66420102      -0.53059298      11.83967703        1      -0.01428112       0.02684895      -0.01338673
Fe       0.99374952       1.31899045      11.92113328        1      -0.01952902      -0.01123656      -0.00022481
Fe       4.65167519       2.38553954      11.87554261        1       0.00743763       0.02254993      -0.01581756
Fe       7.05593882       1.51699727      11.85223383        1      -0.01622764      -0.00530353       0.00769824
Fe       2.41934903       3.31818965      11.91260872        1       0.00908146      -0.01830713       0.02605124
Fe       6.07813521       4.42921748      11.85775249        1      -0.00944328       0.01614483       0.00294234
Fe       8.52137100       3.48685139      11.84179768        1       0.00438458       0.00028052       0.00066013
H        6.03808499       2.74994760      12.78728558        0       0.02176873       0.03826922       0.00649113
