28
Lattice="8.493 0.0 0.0 4.2465 6.005457892617349 0.0 0.0 0.0 20.003638595078232" Properties=species:S:1:pos:R:3:tags:I:1:forces:R:3 charge=0 spin=0 energy=-185.5688369618914 free_energy=-185.5688369618914 stress="0.04338660463690758 -0.00015228208212647587 -1.7047783629209334e-08 -0.00015228208212647587 0.030271630734205246 5.08868716053712e-08 -1.7047783629209334e-08 5.08868716053712e-08 0.009821654297411442" pbc="T T T"
Fe       0.00000000       0.00000000       8.00000000        3       0.01458125      -0.01923968       0.53748089
Fe       2.83100000       0.00000000       8.00000000        3       0.00040633       0.02267527       0.49645036
Fe       5.66200000       0.00000000       8.00000000        3      -0.02081040      -0.02604580       0.52848524
Fe       1.41550000       2.00181930       8.00000000        3      -0.06743281       0.00621323       0.62652600
Fe       4.24650000       2.00181930       8.00000000        3       0.06743231      -0.00621172       0.62652522
Fe       7.07750000       2.00181930       8.00000000        3      -0.00000016       0.00000082       0.62433392
Fe       2.83100000       4.00363860       8.00000000        3      -0.00040616      -0.02267429       0.49645236
Fe       5.66200000       4.00363860       8.00000000        3      -0.01458178       0.01924030       0.53747952
Fe       8.49300000       4.00363860       8.00000000        3       0.02081197       0.02604503       0.52848083
Fe       0.00000000       2.00181930      10.00181930        2      -0.21619654      -0.00107159      -0.21729368
Fe       2.83100000       2.00181930      10.00181930        2      -0.00000056       0.00000177      -0.61248982
Fe       5.66200000       2.00181930      10.00181930        2       0.21618710       0.00105405      -0.21730110
Fe       1.41550000       4.00363860      10.00181930        2       0.03303357      -0.03218707      -0.58589500
Fe       4.24650000       4.00363860      10.00181930        2      -0.06554581      -0.00317865      -0.58449548
Fe       7.07750000       4.00363860      10.00181930        2      -0.01071609      -0.06303378      -0.62355971
Fe       2.83100000       6.00545789      10.00181930        2       0.01071924       0.06303384      -0.62354159
Fe       5.66200000       6.00545789      10.00181930        2       0.06554022       0.00318222      -0.58448589
Fe       8.49300000       6.00545789      10.00181930        2      -0.03303031       0.03218875      -0.58588302
Fe       0.01930338      -0.01185372      11.84294370        1       0.13911869      -0.01065911      -0.23468225
Fe       2.83102815      -0.00080714      11.86396648        1      -0.00220720      -0.06304080      -0.02906807
Fe       5.64227117      -0.01506190      11.84480569        1      -0.14638223      -0.04374297      -0.21636584
Fe       1.43846619       2.00303493      11.86190664        1       0.22044051       0.00899056      -0.05456249
Fe       4.22353383       2.00060380      11.86190696        1      -0.22043769      -0.00899362      -0.05456033
Fe       7.07750047       2.00182288      12.03057361        1      -0.00000116       0.00005039       0.36531138
Fe       2.83097205       4.00444556      11.86396618        1       0.00220504       0.06304163      -0.02906616
Fe       5.64269736       4.01549148      11.84294270        1      -0.13911171       0.01064894      -0.23468567
Fe       8.51272848       4.01870050      11.84480495        1       0.14638346       0.04374857      -0.21636881
O        7.07750965       2.00179837      13.63790936        0       0.00000100      -0.00003643       0.33677939
