29
Lattice="8.493 0.0 0.0 4.2465 6.005457892617349 0.0 0.0 0.0 20.003638595078232" Properties=species:S:1:pos:R:3:tags:I:1:forces:R:3:charge:R:1 charge=0 spin=0 energy=-2311.9179020021534 free_energy=-2311.9179020021534 stress="0.01625608295537458 -0.0011178350669631305 -0.0014762467356772562 -0.0011178350669631305 0.004826839159414489 -0.0021315834140883676 -0.0014762467356772562 -0.0021315834140883676 -0.010515545454562177" dipole="-0.11727473659617706 0.15158346397493494 0.8691860068409761" pbc="T T T"
Fe       0.00000000       0.00000000       8.00000000        3       0.08546419      -0.08709243      -0.13859824      -0.00304494
Fe       2.83100000       0.00000000       8.00000000        3      -0.13626872      -0.01698448      -0.05360616      -0.00346351
Fe       5.66200000       0.00000000       8.00000000        3       0.08101237       0.01266594      -0.08205717      -0.00350056
Fe       1.41550000       2.00181930       8.00000000        3       0.03536314      -0.06633275      -0.12697333      -0.00298640
Fe       4.24650000       2.00181930       8.00000000        3      -0.10047608      -0.01730016      -0.02692768      -0.00377680
Fe       7.07750000       2.00181930       8.00000000        3      -0.00052710      -0.02861210      -0.03455764      -0.00442191
Fe       2.83100000       4.00363860       8.00000000        3       0.06272374      -0.03986522      -0.07499315      -0.00242953
Fe       5.66200000       4.00363860       8.00000000        3      -0.03174073      -0.00102203      -0.06720874      -0.00407351
Fe       8.49300000       4.00363860       8.00000000        3       0.05812184       0.02191478      -0.08609180      -0.00393974
Fe       0.00000000       2.00181930      10.00181930        2      -0.07825641       0.47052466       0.00672068       0.00249914
Fe       2.83100000       2.00181930      10.00181930        2      -0.24237181      -0.31822157      -0.15396359      -0.00030427
Fe       5.66200000       2.00181930      10.00181930        2       0.47320443      -0.20527715      -1.21868423       0.00833004
Fe       1.41550000       4.00363860      10.00181930        2       0.10797989       0.42393669      -0.60683768       0.00346291
Fe       4.24650000       4.00363860      10.00181930        2       0.00158698      -0.33030061       0.02193478       0.00302626
Fe       7.07750000       4.00363860      10.00181930        2      -0.00222389      -0.17609573      -0.47695700       0.00482389
Fe       2.83100000       6.00545789      10.00181930        2      -0.16111565       0.57531299      -0.23283387       0.00225041
Fe       5.66200000       6.00545789      10.00181930        2      -0.07416733      -0.19977392       0.35662097      -0.00063954
Fe       8.49300000       6.00545789      10.00181930        2       0.47007768      -0.25846959      -1.12044771       0.00292916
Fe      -0.39294215      -0.64081239      11.89914594        1       0.12946806       0.16330557       0.32517467       0.01226000
Fe       3.15129007       0.29900728      11.82621820        1      -0.80639091      -0.18257748       0.58174803       0.00897695
Fe       5.67580923      -0.51311943      11.82642584        1       0.21744814      -0.22720903       0.15472874       0.00902004
Fe       1.05372265       1.35349095      11.91274636        1      -0.14587222       0.08617496       0.17125519      -0.00438269
Fe       4.55718257       2.19495814      11.91059787        1      -1.40128439      -0.68669884       0.22625925       0.04293760
Fe       7.10981515       1.49918791      11.89013415        1      -0.09776765       0.02076637       0.12716634       0.03220586
Fe       2.47355433       3.34496955      11.89808500        1      -0.52735102       0.38196755       0.23236154      -0.02991959
Fe       5.98591592       4.41079687      11.91895696        1      -0.20765931      -0.09541009       0.82150880       0.04771812
Fe       8.55500895       3.53463000      11.82006576        1       0.20441521      -0.19260722       0.12766615       0.00418800
O        5.28046900       2.67399430      13.12475270        0      -0.00001216      -0.00034159      -0.00033291      -0.30438787
H        3.44732790       2.66903680      12.93104282        0       0.00012978       0.00032235       0.00032214       0.18664249
