29
Lattice="8.493 0.0 0.0 4.2465 6.005457892617349 0.0 0.0 0.0 20.003638595078232" Properties=species:S:1:pos:R:3:tags:I:1:forces:R:3:charge:R:1 charge=0 spin=0 energy=-2068.318685446526 free_energy=-2068.318685446526 stress="0.014701496254814423 -0.0012418083941740483 0.014562326738688174 -0.0012418083941740483 0.0012227329768367359 0.004489869955277972 0.014562326738688174 0.004489869955277972 -0.0170302974184634" dipole="0.23184422631276067 0.007321418732981948 1.191166643274916" pbc="T T T"
Fe       0.00000000       0.00000000       8.00000000        3      -0.04295908       0.01068052      -0.05830728      -0.00455700
Fe       2.83100000       0.00000000       8.00000000        3       0.06522612       0.05389689       0.03455142      -0.00528255
Fe       5.66200000       0.00000000       8.00000000        3       0.03250313       0.10606921      -0.07870983      -0.00495784
Fe       1.41550000       2.00181930       8.00000000        3       0.04218403       0.01134132      -0.07596687      -0.00438739
Fe       4.24650000       2.00181930       8.00000000        3       0.04650507       0.02106839       0.03258317      -0.00570098
Fe       7.07750000       2.00181930       8.00000000        3      -0.04315498       0.05652626      -0.05679090      -0.00454400
Fe       2.83100000       4.00363860       8.00000000        3       0.01494062       0.09617825      -0.07435813      -0.00477222
Fe       5.66200000       4.00363860       8.00000000        3      -0.02066088       0.02127513       0.04429851      -0.00566597
Fe       8.49300000       4.00363860       8.00000000        3      -0.01679946       0.10180341      -0.06144477      -0.00420001
Fe       0.00000000       2.00181930      10.00181930        2       0.02068760      -0.18906593      -0.67018745       0.00443902
Fe       2.83100000       2.00181930      10.00181930        2       0.04263467      -0.08700876       0.17607050       0.00154161
Fe       5.66200000       2.00181930      10.00181930        2      -0.01492063       0.45027077      -0.37671575       0.00421013
Fe       1.41550000       4.00363860      10.00181930        2       0.08724222      -0.09142510      -0.21808787       0.00358157
Fe       4.24650000       4.00363860      10.00181930        2      -0.24860512      -0.11655570       0.02951612       0.00134627
Fe       7.07750000       4.00363860      10.00181930        2       0.28486993      -0.08748868      -0.34845184       0.00061861
Fe       2.83100000       6.00545789      10.00181930        2      -0.18129695       0.36391171      -0.02021527       0.00148622
Fe       5.66200000       6.00545789      10.00181930        2      -0.00034372      -0.55780255       0.25770998       0.00157412
Fe       8.49300000       6.00545789      10.00181930        2       0.26157316       0.27259609       0.18836460       0.00124943
Fe       0.05290690       0.52694155      11.82678456        1       0.26565115      -0.27342906       0.16720252      -0.00415127
Fe       2.79235380       0.51329705      11.82584007        1       0.14677517       0.10741729       0.05270193      -0.00390608
Fe       4.41090264      -1.33100437      11.87130206        1       0.44583037       0.39725095      -0.05247411       0.00238405
Fe       1.41264464       2.57357503      11.84610593        1      -0.44441735      -0.21164531       0.65481897      -0.03840636
Fe       3.93208151       2.68174822      11.94033034        1      -0.01861331      -0.12176921      -0.20185288       0.01546762
Fe       5.65622153       0.74946018      11.92462848        1      -0.01421602       0.21970801       0.33881691       0.01700274
Fe       2.67202044       4.67320101      11.87027352        1      -0.05009143      -0.17479296       0.05936333      -0.00709568
Fe       5.65880527       4.38687761      11.83349760        1      -0.35360730       0.20941809       0.15717531       0.01745232
Fe       7.38372788       2.68139794      11.93281524        1      13.04332994       2.01592008     -13.70105543       0.00738444
N        6.50495357       2.51797664      12.99419510        0      -0.00223046       0.00695651      -0.01715534      -0.08383191
H        8.90576714       2.15393593      13.22488672        0      -0.00098343       0.01153793      -0.00616553       0.10172108
