42
Lattice="7.708127040155146 0.0 0.0 3.854063520077573 6.675433832372109 0.0 0.0 0.0 22.29365937364323" Properties=species:S:1:pos:R:3:tags:I:1:forces:R:3:charge:R:1 energy=-4831.067873337238 free_energy=-4831.067873337238 stress="-0.01384051772351169 -0.0008799418890591167 5.990263943853906e-05 -0.0008799418890591167 -0.014369726685059734 -7.172171494065706e-05 5.990263943853906e-05 -7.172171494065706e-05 -0.016569852422643708" dipole="0.23381106154277287 -1.0806820734898235 1.5814482330693223" pbc="T T F"
Cu       0.00000000       0.00000000       8.00000000        4      -0.00449184      -0.04089540      -0.29882223       0.00481753
Cu       2.56937568       0.00000000       8.00000000        4      -0.07498143       0.01826338      -0.31130608       0.01408025
Cu       5.13875136       0.00000000       8.00000000        4       0.08415797       0.05251104      -0.30234744      -0.02135074
Cu       1.28468784       2.22514461       8.00000000        4       0.09828073       0.04380440      -0.33067730      -0.01343137
Cu       3.85406352       2.22514461       8.00000000        4      -0.03981293      -0.01986767      -0.30553281      -0.01002594
Cu       6.42343920       2.22514461       8.00000000        4      -0.05411235      -0.06100399      -0.26563529      -0.01206456
Cu       2.56937568       4.45028922       8.00000000        4      -0.03992659      -0.03174381      -0.31846808      -0.00773828
Cu       5.13875136       4.45028922       8.00000000        4       0.00512987       0.06845576      -0.28280151       0.00664305
Cu       7.70812704       4.45028922       8.00000000        4       0.04053678      -0.03004945      -0.26862920       0.02038744
Cu       1.28468784       0.74171487      10.09788646        3       0.04934370       0.00714115      -0.04571631      -0.02464794
Cu       3.85406352       0.74171487      10.09788646        3       0.00788047       0.06495910      -0.07762481       0.01134195
Cu       6.42343920       0.74171487      10.09788646        3      -0.06909009       0.00869937      -0.13771292       0.03844942
Cu       2.56937568       2.96685948      10.09788646        3      -0.08396220      -0.00200624      -0.03124236      -0.00885899
Cu       5.13875136       2.96685948      10.09788646        3       0.02355483      -0.03407419      -0.09354339       0.01629819
Cu       7.70812704       2.96685948      10.09788646        3       0.04807330       0.04364222      -0.06966961       0.00418901
Cu       3.85406352       5.19200409      10.09788646        3      -0.00146409       0.01047234      -0.04751120      -0.03046527
Cu       6.42343920       5.19200409      10.09788646        3      -0.06254405      -0.01845043      -0.06474487      -0.03645890
Cu       8.99281488       5.19200409      10.09788646        3       0.04854104      -0.06942682      -0.05411813       0.00315571
Cu      -0.00001456       1.48341895      12.22216237        2       0.03418731       0.00359147       0.03583744      -0.04948544
Cu       2.56938632       1.48343972      12.22228812        2       0.00599059       0.03560357       0.04367454      -0.03673804
Cu       5.13868200       1.48341490      12.22229490        2      -0.00342867      -0.01813785      -0.03401669      -0.07143503
Cu       1.28472730       3.70860469      12.22229670        2       0.06089795       0.00899873      -0.00325175       0.00440783
Cu       3.85404919       3.70853617      12.22226661        2      -0.04807064       0.02953731      -0.03780574      -0.02627383
Cu       6.42343137       3.70855859      12.22219237        2      -0.00845410       0.05557353       0.09868266      -0.02415042
Cu       2.56933175       5.93372331      12.22226822        2      -0.02907651      -0.06646569       0.08619685      -0.05208998
Cu       5.13873976       5.93371007      12.22221793        2       0.02886938      -0.02898999       0.07110866       0.06062891
Cu       7.70811165       5.93376676      12.22227910        2      -0.00049097      -0.04104032      -0.00610686      -0.02730783
Cu       0.00003176       0.00005032      14.34901118        1       0.13061510      -0.20844472       0.46172172       0.03240264
Cu       2.56930125       0.00001804      14.34916312        1      -0.17471792      -0.04363977       0.32703132      -0.07422464
Cu       5.13864853       0.00002580      14.34922433        1      -0.22422993      -0.56653928       0.05818364       0.36247670
Cu       1.28470809       2.22517124      14.34907163        1       0.29065615       0.09647753       0.24338119      -0.02303904
Cu       3.85409307       2.22518508      14.34928516        1      -0.29176854       0.05387213       0.73386713       0.20903090
Cu       6.42349021       2.22507450      14.34904494        1       0.29693590       0.41762088       0.25971470       0.27224152
Cu       2.56959011       4.45037276      14.34913478        1      -0.05537977      -0.08843591       0.38172697      -0.09637109
Cu       5.13896751       4.45026038      14.34907842        1       0.04059669       0.26745319       0.29108014      -0.04203740
Cu       7.70816084       4.45028686      14.34912297        1      -0.00003481       0.07071421       0.30782694      -0.08062092
O        6.64026823       1.30492475      16.24751577        0      -0.01124001      -0.00874662      -0.02963088      -0.29411254
C        6.52438813       1.44179219      17.61915475        0       0.00492283      -0.01087515       0.00878925       0.19622794
H        5.94060231       2.33066069      17.88058786        0       0.00059595       0.02360247       0.00247260       0.05294806
H        7.54975786       1.57124268      17.98981709        0      -0.02052307      -0.00590612       0.03146874       0.06864414
H        6.07650859       0.54925166      18.07172106        0       0.00939911       0.02156236      -0.01193151       0.04578856
O        5.03027338       1.33284363      15.61155599        0      -0.01136519      -0.00781670      -0.01391752      -0.36123153
