29
Lattice="8.493 0.0 0.0 4.2465 6.005457892617349 0.0 0.0 0.0 20.003638595078232" Properties=species:S:1:pos:R:3:tags:I:1:forces:R:3:charge:R:1 charge=0 spin=0 energy=-2285.3791944577656 free_energy=-2285.3791944577656 stress="0.02035675160353843 -0.0013336490720881962 -0.0022226530647882115 -0.0013336490720881962 0.006030483144029028 -0.0010204929556385167 -0.0022226530647882115 -0.0010204929556385167 -0.009114891142919645" dipole="0.242195255107073 0.048317344865377886 0.6567561370792865" pbc="T T T"
Fe       0.00000000       0.00000000       8.00000000        3       0.08283943      -0.07532256      -0.15658079      -0.00179537
Fe       2.83100000       0.00000000       8.00000000        3      -0.13708532       0.03479534      -0.07574130      -0.00335020
Fe       5.66200000       0.00000000       8.00000000        3       0.00723111      -0.00380598      -0.05405698      -0.00292421
Fe       1.41550000       2.00181930       8.00000000        3       0.01195622      -0.07235633      -0.13316600      -0.00291382
Fe       4.24650000       2.00181930       8.00000000        3      -0.08451495       0.01380781       0.00356697      -0.00379026
Fe       7.07750000       2.00181930       8.00000000        3      -0.00650819       0.01722401      -0.04644187      -0.00231375
Fe       2.83100000       4.00363860       8.00000000        3       0.06639672      -0.07950236      -0.04922733      -0.00288037
Fe       5.66200000       4.00363860       8.00000000        3      -0.06564773       0.00126882      -0.05078088      -0.00332001
Fe       8.49300000       4.00363860       8.00000000        3       0.07586287       0.01775087      -0.06252106      -0.00327523
Fe       0.00000000       2.00181930      10.00181930        2      -0.13732623       0.39876768      -0.31861656       0.00196129
Fe       2.83100000       2.00181930      10.00181930        2      -0.25985550      -0.26739691       0.10963412       0.00097420
Fe       5.66200000       2.00181930      10.00181930        2       0.19663505      -0.22385678      -1.14288818       0.01222725
Fe       1.41550000       4.00363860      10.00181930        2       0.09067176       0.42111673      -0.37117480       0.00311606
Fe       4.24650000       4.00363860      10.00181930        2       0.04893218      -0.15710050       0.14694081       0.00222879
Fe       7.07750000       4.00363860      10.00181930        2      -0.07595086      -0.16480597      -0.60026067       0.00697653
Fe       2.83100000       6.00545789      10.00181930        2       0.00404245       0.50400192      -0.58168463       0.00201281
Fe       5.66200000       6.00545789      10.00181930        2      -0.08749108      -0.27406526       0.26262666      -0.00006525
Fe       8.49300000       6.00545789      10.00181930        2       0.38690102      -0.37193080      -1.10422941       0.00554498
Fe      -0.39294215      -0.64081239      11.89914594        1       0.02792228      -0.19501402       0.19666907       0.00842411
Fe       3.15129007       0.29900728      11.82621820        1      -0.64488154       0.19883703       0.70619024       0.00817366
Fe       5.67580923      -0.51311943      11.82642584        1       0.06341872      -0.41060357       0.10712211       0.01591402
Fe       1.05372265       1.35349095      11.91274636        1      -0.00116044       0.05727582       0.28769708      -0.01246632
Fe       4.55718257       2.19495814      11.91059787        1       1.41104412       0.27049213       2.26986328       0.06002089
Fe       7.10981515       1.49918791      11.89013415        1      -3.71879210       0.62499869      -1.43745846       0.01814821
Fe       2.47355433       3.34496955      11.89808500        1       0.11983102       0.12012586       0.21276597       0.00411427
Fe       5.98591592       4.41079687      11.91895696        1       0.12508756      -0.66325532       0.94358563       0.05105461
Fe       8.55500895       3.53463000      11.82006576        1       0.15663993       0.06709447       0.36985580       0.01687762
O        6.10500281       2.46025410      13.10500551        0       0.00234431       0.00059890       0.00026426      -0.35008456
H        7.86027747       1.64246682      12.94985288        0      -0.00234139       0.00084201      -0.00107436       0.17141008
