29
Lattice="8.493 0.0 0.0 4.2465 6.005457892617349 0.0 0.0 0.0 20.003638595078232" Properties=species:S:1:pos:R:3:tags:I:1:forces:R:3:charge:R:1 charge=0 spin=0 energy=-2318.004652522187 free_energy=-2318.004652522187 stress="0.019476566510605 -3.8287987011284215e-05 -2.819281615164445e-05 -3.8287987011284215e-05 0.007039791622777523 0.004942018120077069 -2.819281615164445e-05 0.004942018120077069 0.01038989665215167" dipole="-0.23973717969407526 -0.7082124551732394 -0.6576595468658906" pbc="T T T"
Fe       0.00000000       0.00000000       8.00000000        3      -0.04454785      -0.03006038      -0.20567557       0.00381030
Fe       2.83100000       0.00000000       8.00000000        3      -0.00759074       0.04354919       0.07506939       0.00526473
Fe       5.66200000       0.00000000       8.00000000        3       0.05169504      -0.03844826      -0.20923163       0.00388404
Fe       1.41550000       2.00181930       8.00000000        3      -0.10567059      -0.04006540       0.07754174       0.00385582
Fe       4.24650000       2.00181930       8.00000000        3       0.10507185      -0.02472842       0.07639748       0.00384811
Fe       7.07750000       2.00181930       8.00000000        3      -0.00020383      -0.00450257      -0.04549016       0.00409483
Fe       2.83100000       4.00363860       8.00000000        3       0.00694177       0.05955255       0.11515893       0.00291955
Fe       5.66200000       4.00363860       8.00000000        3       0.02275335       0.04888051      -0.15351453       0.00421209
Fe       8.49300000       4.00363860       8.00000000        3      -0.02627785       0.05431739      -0.15206611       0.00432270
Fe       0.00000000       2.00181930      10.00181930        2      -0.28052932      -0.05603395       0.26377934       0.00244073
Fe       2.83100000       2.00181930      10.00181930        2      -0.00028613       0.03223205      -1.74611134       0.00438386
Fe       5.66200000       2.00181930      10.00181930        2       0.27701447      -0.06456191       0.26015201       0.00245757
Fe       1.41550000       4.00363860      10.00181930        2      -0.48447238      -0.21236650      -0.04362776       0.00355267
Fe       4.24650000       4.00363860      10.00181930        2       0.43213385      -0.21227766       0.03837167       0.00340868
Fe       7.07750000       4.00363860      10.00181930        2       0.02808688       0.60220226      -0.37525476       0.00137579
Fe       2.83100000       6.00545789      10.00181930        2      -0.02025016      -0.53486150      -0.22198383       0.00274326
Fe       5.66200000       6.00545789      10.00181930        2      -0.32293486       0.17233344      -0.07579831       0.00308616
Fe       8.49300000       6.00545789      10.00181930        2       0.36658621       0.17376446      -0.13047661       0.00322586
Fe      -0.13344440       0.38390398      11.85642765        1      -0.25923619      -0.03732092       0.32413222       0.03578175
Fe       2.84677533      -0.33092509      11.75935599        1      -0.04109765      -0.49205657       1.76672947       0.04469054
Fe       5.78010585       0.38603627      11.85828382        1       0.29546627       0.00981234       0.30903356       0.03551429
Fe       1.61731286       1.97990060      11.82272608        1      -0.00991758       0.08482587       0.79784190       0.03936260
Fe       4.04470224       2.02347040      11.82271317        1       0.00856874       0.04189343       0.78414270       0.03920258
Fe       7.07760239       2.00186617      12.82188109        1      -0.00233150       2.32953435       5.64330120       0.08743594
Fe       2.81505511       4.33442676      11.75931351        1       0.02292069       0.45036127      -0.06351344       0.03339000
Fe       5.79543645       3.61959045      11.85643422        1       0.05785938       0.27808834       0.58919952       0.05534084
Fe       8.37505401       3.61767083      11.85824638        1      -0.08098982       0.20730700       0.57834938       0.05501058
O        7.07749716       2.80944343      14.39193796        0       0.00535193      -0.00057254       0.00229707      -0.20151843
O        2.83105387      -0.82192694      14.40103940        0      -0.00280991       0.00299467      -0.00906025      -0.28709743
