28
Lattice="8.493 0.0 0.0 4.2465 6.005457892617349 0.0 0.0 0.0 20.003638595078232" Properties=species:S:1:pos:R:3:tags:I:1:forces:R:3 charge=0 spin=0 energy=-187.0051189127546 free_energy=-187.0051189127546 stress="0.047103818506002426 -0.00015998439630493522 -6.575589139856675e-08 -0.00015998439630493522 0.02974030375480652 1.0291118996974546e-06 -6.575589139856675e-08 1.0291118996974546e-06 0.00901534128934145" pbc="T T T"
Fe       0.00000000       0.00000000       8.00000000        3      -0.04067389      -0.02024080       0.51485646
Fe       2.83100000       0.00000000       8.00000000        3       0.01108168       0.05896734       0.28260142
Fe       5.66200000       0.00000000       8.00000000        3       0.03921842      -0.05926391       0.55181199
Fe       1.41550000       2.00181930       8.00000000        3      -0.14485379       0.01110130       0.58781010
Fe       4.24650000       2.00181930       8.00000000        3       0.14483878      -0.01114483       0.58783436
Fe       7.07750000       2.00181930       8.00000000        3       0.00001172      -0.00003682       0.72238070
Fe       2.83100000       4.00363860       8.00000000        3      -0.01107502      -0.05900063       0.28264427
Fe       5.66200000       4.00363860       8.00000000        3       0.04074747       0.02018961       0.51483774
Fe       8.49300000       4.00363860       8.00000000        3      -0.03924965       0.05923048       0.55176473
Fe       0.00000000       2.00181930      10.00181930        2       0.13668029      -0.00124857      -0.00976543
Fe       2.83100000       2.00181930      10.00181930        2      -0.00005007       0.00036474      -1.09115362
Fe       5.66200000       2.00181930      10.00181930        2      -0.13666129       0.00123457      -0.01002118
Fe       1.41550000       4.00363860      10.00181930        2       0.17558512      -0.14305212      -0.95841748
Fe       4.24650000       4.00363860      10.00181930        2      -0.13588968      -0.08758653      -0.92740721
Fe       7.07750000       4.00363860      10.00181930        2      -0.04556216       0.15555638       0.13142307
Fe       2.83100000       6.00545789      10.00181930        2       0.04569834      -0.15572426       0.13125488
Fe       5.66200000       6.00545789      10.00181930        2       0.13624994       0.08778204      -0.92694283
Fe       8.49300000       6.00545789      10.00181930        2      -0.17618661       0.14364801      -0.95830739
Fe       0.23507382       0.15598680      11.83884426        1      -0.00784947      -0.00412127      -0.00471106
Fe       2.83364786      -0.40168234      11.85421472        1       0.00358865       0.00061688       0.00999874
Fe       5.42587549       0.15905318      11.84361252        1      -0.01356743       0.00322760       0.00492369
Fe       1.67848416       2.00768784      11.94107184        1       0.00391195      -0.00977908      -0.00476443
Fe       3.98354748       1.99574632      11.94106186        1      -0.00384039       0.00955605      -0.00477259
Fe       7.07745672       2.00183126      12.16210128        1      -0.00005594      -0.00005651       0.03861024
Fe       2.82839521       4.40516372      11.85420456        1      -0.00353017      -0.00074663       0.01000551
Fe       5.42683563       3.84762316      11.83884464        1       0.00780957       0.00403660      -0.00471890
Fe       8.72922083       3.84441375      11.84362987        1       0.01361893      -0.00352161       0.00493926
N        7.07749476       2.00183591      13.72520269        0       0.00000414       0.00001189      -0.02671511
