28
Lattice="8.493 0.0 0.0 4.2465 6.005457892617349 0.0 0.0 0.0 20.003638595078232" Properties=species:S:1:pos:R:3:tags:I:1:forces:R:3 charge=0 spin=0 energy=-186.47777039438301 free_energy=-186.47777039438301 stress="0.04506459832191467 -7.36715883249417e-05 -6.313355616072158e-09 -7.36715883249417e-05 0.0300721637904644 4.840731371302809e-09 -6.313355616072158e-09 4.840731371302809e-09 0.0096557242795825" pbc="T T T"
Fe       0.00000000       0.00000000       8.00000000        3       0.01427825      -0.01585871       0.51856881
Fe       2.83100000       0.00000000       8.00000000        3       0.00581898       0.01791924       0.52456737
Fe       5.66200000       0.00000000       8.00000000        3      -0.02767719      -0.03132312       0.50558972
Fe       1.41550000       2.00181930       8.00000000        3      -0.09364273       0.00184625       0.67043298
Fe       4.24650000       2.00181930       8.00000000        3       0.09364276      -0.00184636       0.67043126
Fe       7.07750000       2.00181930       8.00000000        3       0.00000059       0.00000028       0.62420386
Fe       2.83100000       4.00363860       8.00000000        3      -0.00581851      -0.01791888       0.52456921
Fe       5.66200000       4.00363860       8.00000000        3      -0.01427885       0.01585913       0.51856768
Fe       8.49300000       4.00363860       8.00000000        3       0.02767666       0.03132322       0.50558919
Fe       0.00000000       2.00181930      10.00181930        2      -0.10233238       0.00930580      -0.46457443
Fe       2.83100000       2.00181930      10.00181930        2       0.00000084       0.00000152      -0.52457380
Fe       5.66200000       2.00181930      10.00181930        2       0.10232981      -0.00930950      -0.46457776
Fe       1.41550000       4.00363860      10.00181930        2      -0.04640352      -0.01088150      -0.51082283
Fe       4.24650000       4.00363860      10.00181930        2       0.00720299       0.01471222      -0.50823241
Fe       7.07750000       4.00363860      10.00181930        2      -0.02219737      -0.00101176      -0.62528384
Fe       2.83100000       6.00545789      10.00181930        2       0.02219181       0.00101176      -0.62528437
Fe       5.66200000       6.00545789      10.00181930        2      -0.00719907      -0.01470945      -0.50823236
Fe       8.49300000       6.00545789      10.00181930        2       0.04640613       0.01088198      -0.51081783
Fe       0.00642492      -0.00689488      11.85545387        1       0.07001074      -0.05578212      -0.27040815
Fe       2.83114075       0.00098131      11.86595607        1      -0.00234522      -0.00528540      -0.04067067
Fe       5.65493592      -0.00874555      11.85579927        1      -0.08638126      -0.08410604      -0.25930294
Fe       1.42622897       2.00232731      11.86702685        1       0.16070728       0.00947247      -0.04904168
Fe       4.23577176       2.00131133      11.86702711        1      -0.16070883      -0.00947395      -0.04904121
Fe       7.07749997       2.00181952      12.04590673        1       0.00000187       0.00000072       0.46811074
Fe       2.83085952       4.00265722      11.86595585        1       0.00234452       0.00528289      -0.04067075
Fe       5.65557415       4.01053386      11.85545399        1      -0.07001108       0.05578547      -0.27041358
Fe       8.50006407       4.01238424      11.85579919        1       0.08638266       0.08410510      -0.25929749
N        7.07750057       2.00181856      13.60679305        0      -0.00000002      -0.00000117       0.45061564
