42
Lattice="7.708127040155146 0.0 0.0 3.854063520077573 6.675433832372109 0.0 0.0 0.0 22.29365937364323" Properties=species:S:1:pos:R:3:tags:I:1:forces:R:3:charge:R:1 energy=-4721.538847994728 free_energy=-4721.538847994728 stress="-0.013736050086928787 -0.00043334856047087664 2.1606329915774143e-05 -0.00043334856047087664 -0.013191212215651152 8.124638895270105e-07 2.1606329915774143e-05 8.124638895270105e-07 -0.015069165511620753" dipole="1.2451670042953709 0.7002485118816537 1.7364164753228333" pbc="T T F"
Cu      -0.00000000       0.00000000       8.00000000        4      -0.05250511      -0.02894178      -0.31773007      -0.01166564
Cu       2.56937568      -0.00000000       8.00000000        4       0.04962528      -0.01401200      -0.31496993       0.00561570
Cu       5.13875136      -0.00000000       8.00000000        4       0.00622752      -0.01974819      -0.35430783      -0.01634377
Cu       1.28468784       2.22514461       8.00000000        4       0.00965773       0.04842267      -0.31572699       0.00601847
Cu       3.85406352       2.22514461       8.00000000        4       0.00434768       0.00143030      -0.32089814      -0.01468859
Cu       6.42343920       2.22514461       8.00000000        4      -0.01132973      -0.03686561      -0.29193756      -0.00685877
Cu       2.56937568       4.45028922       8.00000000        4      -0.01323608       0.01709322      -0.35386681      -0.01627031
Cu       5.13875136       4.45028922       8.00000000        4      -0.03846908       0.00702143      -0.29043890      -0.00659758
Cu       7.70812704       4.45028922       8.00000000        4       0.05468311       0.03171434      -0.33689894      -0.01946031
Cu       1.28468784       0.74171487      10.09788646        3      -0.04128990      -0.02342836      -0.00301408      -0.00061419
Cu       3.85406352       0.74171487      10.09788646        3       0.02215740      -0.01750738      -0.00579603      -0.00235529
Cu       6.42343920       0.74171487      10.09788646        3       0.01164322      -0.04151223      -0.02940016       0.00746201
Cu       2.56937568       2.96685948      10.09788646        3      -0.00244383       0.02922307      -0.00448215      -0.00275583
Cu       5.13875136       2.96685948      10.09788646        3      -0.03320295      -0.01820071      -0.07243592       0.03485867
Cu       7.70812704       2.96685948      10.09788646        3       0.02861844       0.05118549      -0.05126162       0.00331623
Cu       3.85406352       5.19200409      10.09788646        3      -0.03158455       0.02825779      -0.02969015       0.00759597
Cu       6.42343920       5.19200409      10.09788646        3       0.05978726      -0.00133328      -0.05147859       0.00400010
Cu       8.99281488       5.19200409      10.09788646        3      -0.03631338      -0.02209278       0.03657317      -0.00236479
Cu      -0.00001456       1.48341895      12.22216237        2       0.02035275      -0.04584764       0.12590102       0.00302308
Cu       2.56938632       1.48343972      12.22228812        2       0.00880763       0.00328546       0.04567611       0.01769433
Cu       5.13868200       1.48341490      12.22229490        2      -0.03463690      -0.04234214       0.12067448      -0.01713636
Cu       1.28472730       3.70860469      12.22229670        2       0.01453407       0.00367135       0.05550916       0.01030027
Cu       3.85404919       3.70853617      12.22226661        2      -0.05265243      -0.00793681       0.12412295      -0.01645551
Cu       6.42343137       3.70855859      12.22219237        2       0.06037816       0.03459679       0.12735097       0.00207831
Cu       2.56933175       5.93372331      12.22226822        2       0.02730602       0.01604613       0.04180916       0.00780045
Cu       5.13873976       5.93371007      12.22221793        2      -0.02833502       0.04041490       0.12817397       0.00192253
Cu       7.70811165       5.93376676      12.22227910        2       0.00925875       0.01241481       0.05631824       0.00956767
Cu       0.00003176       0.00005032      14.34901118        1      -0.00855583       0.00012785       0.28871164      -0.06760137
Cu       2.56930125       0.00001804      14.34916312        1       0.08584796       0.09628851       0.29035925      -0.06153627
Cu       5.13864853       0.00002580      14.34922433        1      -0.08228494      -0.12828722       0.31119978      -0.04635298
Cu       1.28470809       2.22517124      14.34907163        1       0.12327572       0.02473365       0.29153594      -0.06251705
Cu       3.85409307       2.22518508      14.34928516        1      -0.31298403      -0.18136488       0.10844193      -0.02573150
Cu       6.42349021       2.22507450      14.34904494        1       0.08245678      -0.16252312       0.29657805       0.05990768
Cu       2.56959011       4.45037276      14.34913478        1      -0.15201933      -0.00667954       0.30978086      -0.04702136
Cu       5.13896751       4.45026038      14.34907842        1      -0.09288940       0.15562638       0.30608665       0.06311122
Cu       7.70816084       4.45028686      14.34912297        1       0.35031828       0.20218760       0.08269202      -0.05565043
O        5.82268018       3.36675201      16.36440613        0       0.00411169      -0.01078297       0.00935906      -0.45219784
C        5.04049787       2.91229235      17.47178506        0       0.01643389      -0.00587075       0.01909931       0.17308799
H        5.59315380       2.15806879      18.04016154        0      -0.00158597       0.01386326      -0.00750225       0.04246327
H        4.78088974       3.75466421      18.11922734        0      -0.00365272      -0.00040772      -0.00308468       0.04163800
H        4.12828284       2.46712974      17.06963258        0      -0.01042750      -0.00597584      -0.01386559       0.06820428
H        6.62363402       3.79149458      16.69954650        0      -0.00943065       0.00405595      -0.00716733       0.38250951
