42
Lattice="7.708127040155146 0.0 0.0 3.854063520077573 6.675433832372109 0.0 0.0 0.0 22.29365937364323" Properties=species:S:1:pos:R:3:tags:I:1:forces:R:3:charge:R:1 energy=-4720.945036197794 free_energy=-4720.945036197794 stress="-0.01423125294932569 0.00037603781102127354 -0.0001950513345365606 0.00037603781102127354 -0.014677158023012418 -0.00015218349881236106 -0.0001950513345365606 -0.00015218349881236106 -0.019103062614014135" dipole="1.4652173048181 0.8487572088483611 1.6434985326372824" pbc="T T F"
Cu      -0.00000000       0.00000000       8.00000000        4      -0.06013830      -0.04241267      -0.28231399      -0.00154079
Cu       2.56937568      -0.00000000       8.00000000        4       0.05923337       0.00358125      -0.31075265       0.00881812
Cu       5.13875136      -0.00000000       8.00000000        4       0.00033908      -0.05164985      -0.35949391      -0.01763081
Cu       1.28468784       2.22514461       8.00000000        4       0.02841746       0.05529096      -0.31059450       0.00748713
Cu       3.85406352       2.22514461       8.00000000        4       0.01151352       0.00334054      -0.29244103      -0.00583604
Cu       6.42343920       2.22514461       8.00000000        4      -0.04008582      -0.00886604      -0.26310554      -0.00402142
Cu       2.56937568       4.45028922       8.00000000        4      -0.04364972       0.03010423      -0.36047454      -0.01679575
Cu       5.13875136       4.45028922       8.00000000        4      -0.03574154      -0.02708242      -0.26602278      -0.00492870
Cu       7.70812704       4.45028922       8.00000000        4       0.08031436       0.03817504      -0.36637868      -0.02167562
Cu       1.28468784       0.74171487      10.09788646        3      -0.03241712      -0.02100478       0.01268040      -0.00836140
Cu       3.85406352       0.74171487      10.09788646        3      -0.00614560      -0.09880018      -0.02341070      -0.00386999
Cu       6.42343920       0.74171487      10.09788646        3       0.03622079      -0.07529101      -0.05068511       0.00899460
Cu       2.56937568       2.96685948      10.09788646        3      -0.09262758       0.03810709      -0.02230901      -0.00337842
Cu       5.13875136       2.96685948      10.09788646        3       0.02843207       0.01537015      -0.15419848       0.04800087
Cu       7.70812704       2.96685948      10.09788646        3       0.06506597       0.08336574      -0.04436867      -0.00373187
Cu       3.85406352       5.19200409      10.09788646        3      -0.03882867       0.07461731      -0.05249504       0.00806479
Cu       6.42343920       5.19200409      10.09788646        3       0.09956181       0.01384580      -0.03903278      -0.00427662
Cu       8.99281488       5.19200409      10.09788646        3      -0.06035849      -0.03133353       0.06828311      -0.00984155
Cu      -0.00001456       1.48341895      12.22216237        2       0.01629966      -0.09090532       0.07629032       0.01241597
Cu       2.56938632       1.48343972      12.22228812        2      -0.00837827      -0.00288874       0.02347917       0.00562151
Cu       5.13868200       1.48341490      12.22229490        2      -0.01832894      -0.04213190       0.06103326      -0.01947317
Cu       1.28472730       3.70860469      12.22229670        2       0.02201464      -0.01797989       0.06249085       0.01426919
Cu       3.85404919       3.70853617      12.22226661        2      -0.04231703       0.00865644       0.05662461      -0.01960029
Cu       6.42343137       3.70855859      12.22219237        2       0.01269585       0.00398989       0.02614070      -0.03135264
Cu       2.56933175       5.93372331      12.22226822        2       0.05543999       0.03048057      -0.01869006      -0.01133394
Cu       5.13873976       5.93371007      12.22221793        2      -0.08009814       0.05813782       0.07896744       0.01255451
Cu       7.70811165       5.93376676      12.22227910        2       0.00346564       0.03047743       0.06324269       0.01520453
Cu       0.00003176       0.00005032      14.34901118        1      -0.01622357      -0.02718012       0.36061285      -0.07963379
Cu       2.56930125       0.00001804      14.34916312        1       0.09481256       0.11648075       0.36309862      -0.08546240
Cu       5.13864853       0.00002580      14.34922433        1      -0.10258981      -0.22634167       0.35723561      -0.04755613
Cu       1.28470809       2.22517124      14.34907163        1       0.15720221       0.02998963       0.36324323      -0.09162449
Cu       3.85409307       2.22518508      14.34928516        1      -0.36468263      -0.20919926       0.16584427       0.01327498
Cu       6.42349021       2.22507450      14.34904494        1       0.37259299      -0.82179841      -0.49697264       0.10651518
Cu       2.56959011       4.45037276      14.34913478        1      -0.23936632       0.02994320       0.35759816      -0.04202007
Cu       5.13896751       4.45026038      14.34907842        1      -0.51599762       0.70959305      -0.48157692       0.09550329
Cu       7.70816084       4.45028686      14.34912297        1       0.50839676       0.29288944       0.09536757      -0.10969008
O        5.70656984       3.27866062      15.92512590        0       0.06495876       0.01974906       0.21303977      -0.42743508
C        5.78041024       3.34220871      17.33656212        0      -0.00995382      -0.01063961       0.22929152       0.17073513
H        6.82290057       3.21786496      17.63439483        0      -0.01311952      -0.01577153       0.20495587       0.04879049
H        5.38864540       4.30596000      17.66413496        0       0.01075343       0.00102210       0.21498846       0.05515184
H        5.16632074       2.52146185      17.69999102        0      -0.01680146       0.00862213       0.27665468       0.06806442
H        6.47248644       3.74397153      15.51141220        0       0.11011906       0.12544733       0.46415387       0.37160451
