2
Lattice="21.140929554306066 0.0 0.0 0.0 20.0 0.0 0.0 0.0 20.0" Properties=species:S:1:pos:R:3:forces:R:3 charge=0 spin=1 energy=-4089.7792232020583 stress="-2.6746298317448236e-05 2.855947357548041e-18 7.139868393870103e-19 2.855947357548041e-18 0.0 0.0 7.139868393870103e-19 0.0 0.0" free_energy=-4089.7792232020583 pbc="T T T"
O       11.16760880      10.00000000      10.00000000       0.18938196      -0.00000000      -0.00000000
O        9.97332075      10.00000000      10.00000000      -0.18938196       0.00000000       0.00000000
