29
Lattice="8.493 0.0 0.0 4.2465 6.005457892617349 0.0 0.0 0.0 20.003638595078232" Properties=species:S:1:pos:R:3:initial_charges:R:1:tags:I:1:forces:R:3 charge=0 spin=0 energy=-196.72394350136224 free_energy=-196.72394350136224 stress="0.052137527614831924 0.000599894963670522 0.00024450800265185535 0.000599894963670522 0.018407205119729042 0.001736183068715036 0.00024450800265185535 0.001736183068715036 0.009133640676736832" dipole="-0.24796427814671432 -0.24655729840730048 1.069485913274165" pbc="T T T"
Fe       0.00000000       0.00000000       8.00000000      -0.00135654        3       0.03553130       0.07808308       0.59813225
Fe       2.83100000       0.00000000       8.00000000      -0.00090792        3       0.04314981       0.10941965       0.46410513
Fe       5.66200000       0.00000000       8.00000000      -0.00174588        3      -0.03425356       0.08394899       0.45560557
Fe       1.41550000       2.00181930       8.00000000      -0.00207394        3       0.05893996       0.11916418       0.43565816
Fe       4.24650000       2.00181930       8.00000000      -0.00128229        3       0.03342691       0.08676283       0.60227966
Fe       7.07750000       2.00181930       8.00000000      -0.00132088        3      -0.06422812       0.06760442       0.60667610
Fe       2.83100000       4.00363860       8.00000000      -0.00212952        3       0.07006758       0.13053402       0.48148450
Fe       5.66200000       4.00363860       8.00000000      -0.00148281        3       0.00146306       0.10374701       0.62362808
Fe       8.49300000       4.00363860       8.00000000      -0.00220949        3      -0.04578459       0.11657705       0.41324103
Fe       0.00000000       2.00181930      10.00181930      -0.00136529        2      -0.04418192      -0.40955213      -0.77600008
Fe       2.83100000       2.00181930      10.00181930       0.00118978        2       0.17004280      -0.13996689      -0.73192436
Fe       5.66200000       2.00181930      10.00181930       0.00224197        2      -0.03601313       0.30013427      -0.86705929
Fe       1.41550000       4.00363860      10.00181930       0.00064675        2      -0.11758576      -0.25607070      -0.64343971
Fe       4.24650000       4.00363860      10.00181930      -0.00101134        2      -0.21298645       0.13495599      -0.25301167
Fe       7.07750000       4.00363860      10.00181930       0.00778821        2       0.27909541      -0.24977514      -0.38971117
Fe       2.83100000       6.00545789      10.00181930       0.00034460        2      -0.33059469       0.01789686      -0.45921540
Fe       5.66200000       6.00545789      10.00181930       0.00085906        2       0.25649655      -0.37874001      -0.41497889
Fe       8.49300000       6.00545789      10.00181930       0.00306365        2      -0.03004558       0.04340916      -0.14980440
Fe       0.00798269       0.47958078      11.79230244       0.02746304        1       0.01093790       0.00544882      -0.00033745
Fe       2.87068179       0.57343779      11.93247654       0.04637940        1      -0.00043068       0.00894942      -0.01033473
Fe       5.65282100       0.69336797      11.91677556       0.01690847        1      -0.02050559      -0.00999535      -0.01541913
Fe       1.39698642       2.57752091      11.82301167       0.01699466        1       0.00284138       0.00603230       0.00361901
Fe       3.99468223       2.68837418      11.92451571       0.02881640        1      -0.00222266       0.00438236       0.01203587
Fe       7.37146706       2.54460198      11.92483138       0.05794122        1      -0.01199862       0.01411210      -0.00809302
Fe       2.64678033       4.65041526      11.85504802       0.00528655        1       0.00180669       0.00215859       0.00305440
Fe       5.80312697       4.39193523      11.93220819       0.09740161        1      -0.01126167       0.02859880      -0.02733620
Fe       8.65100834       4.61829836      11.87671538       0.05477783        1      -0.01137643       0.00552602       0.00373595
O        5.66244093       2.40888851      12.78406216      -0.18237631        0       0.00225719      -0.02804025       0.02624783
O        6.55081255       5.44662761      13.16785943      -0.16884100        0       0.00741280       0.00469465       0.01716130
