29
Lattice="8.493 0.0 0.0 4.2465 6.005457892617349 0.0 0.0 0.0 20.003638595078232" Properties=species:S:1:pos:R:3:tags:I:1:forces:R:3:charge:R:1 charge=0 spin=0 energy=-2109.801329797465 free_energy=-2109.801329797465 stress="0.026235034126541636 0.0009519548394189079 0.0014699166516377053 0.0009519548394189079 -0.0012527030383833616 0.003071604728278413 0.0014699166516377053 0.003071604728278413 -0.0018599592350071457" dipole="0.03657954414174544 -0.14507632921199945 1.0200490779816376" pbc="T T T"
Fe       0.00000000       0.00000000       8.00000000        3       0.00051858       0.09324270       0.00650382      -0.00330283
Fe       2.83100000       0.00000000       8.00000000        3      -0.03421880       0.03236490      -0.10918416      -0.00421181
Fe       5.66200000       0.00000000       8.00000000        3      -0.03236531       0.14049559      -0.00616150      -0.00267497
Fe       1.41550000       2.00181930       8.00000000        3       0.02798374       0.03797879      -0.09217725      -0.00272580
Fe       4.24650000       2.00181930       8.00000000        3       0.04033678       0.05176288      -0.06871043      -0.00306261
Fe       7.07750000       2.00181930       8.00000000        3      -0.00429523       0.02008871       0.00225043      -0.00432849
Fe       2.83100000       4.00363860       8.00000000        3      -0.02432326       0.11963731      -0.09813159      -0.00200030
Fe       5.66200000       4.00363860       8.00000000        3       0.04474368      -0.02677573       0.10113553      -0.00451366
Fe       8.49300000       4.00363860       8.00000000        3       0.03529711       0.00610512      -0.11494935      -0.00300869
Fe       0.00000000       2.00181930      10.00181930        2      -0.00317376      -0.02517377       0.05665597       0.00416383
Fe       2.83100000       2.00181930      10.00181930        2       0.04294524      -0.01991130      -0.24858794       0.00199276
Fe       5.66200000       2.00181930      10.00181930        2      -0.10369329       0.31775888       0.18166254       0.00088760
Fe       1.41550000       4.00363860      10.00181930        2       0.08844773       0.14567212      -0.58886286       0.00375904
Fe       4.24650000       4.00363860      10.00181930        2      -0.12146210       0.28947604       0.05956677       0.00069461
Fe       7.07750000       4.00363860      10.00181930        2      -0.03487796      -0.14162658       0.00535956       0.00780163
Fe       2.83100000       6.00545789      10.00181930        2      -0.01964421       0.16160987      -0.04262335       0.00241899
Fe       5.66200000       6.00545789      10.00181930        2       0.08876096      -0.39730904      -0.03955225       0.00242744
Fe       8.49300000       6.00545789      10.00181930        2       0.23424797      -0.31458691      -0.45223214       0.00278933
Fe       0.12726763       0.56517577      11.84049183        1       0.15451905       0.10586096       0.02736301       0.00776674
Fe       2.84603649       0.57870060      11.81307720        1      -0.09706791       0.00806912       0.16430463       0.02161262
Fe       5.44068274       0.67079957      11.88013672        1       0.13725233       0.24899795      -0.14832863       0.01384135
Fe       1.51521491       2.57650792      11.83905801        1       0.32887448      -0.28072104       0.51775090       0.00572045
Fe       4.05513961       2.63868269      11.86595073        1       0.15423220      -0.10272419       0.15506536       0.00157273
Fe       7.08804888       2.40112033      11.85954878        1       0.28710887       0.49156879       0.51689916       0.04652758
Fe       2.68660770       4.69551046      11.88982110        1      -0.44053039      -0.17886624       0.50153079      -0.03053030
Fe       5.56870126       4.57582606      11.89265766        1      -0.14117896      -0.03969199      -0.17374181       0.03535379
Fe       8.63823459       4.57932554      11.90274250        1       0.20300017       0.24719774       1.00914327       0.06314270
O        7.98251355       3.99976439      13.14890965        0       0.00028249       0.00048231       0.00136368      -0.30231038
H       10.32093338       4.00244407      13.26959408        0       0.00270257       0.00033480      -0.00135477       0.14019664
