41
Lattice="7.708127040155146 0.0 0.0 3.854063520077573 6.675433832372109 0.0 0.0 0.0 22.29365937364323" Properties=species:S:1:pos:R:3:tags:I:1:forces:R:3:charge:R:1 energy=-4700.5673731433035 free_energy=-4700.5673731433035 stress="-0.01327970465757293 -4.311695008663493e-06 -8.4109660912632e-06 -4.311695008663493e-06 -0.019132724894885076 0.00146483880261212 -8.4109660912632e-06 0.00146483880261212 -0.014644446106647046" dipole="0.16207816575380243 -0.9394610990519796 2.0309589977931832" pbc="T T F"
Cu       0.00000000       0.00000000       8.00000000        4      -0.06572788       0.02243305      -0.27166733      -0.00226613
Cu       2.56937568      -0.00000000       8.00000000        4       0.00000609       0.03304294      -0.27301421       0.00082545
Cu       5.13875136       0.00000000       8.00000000        4       0.06572166       0.02245520      -0.27164944      -0.00225591
Cu       1.28468784       2.22514461       8.00000000        4       0.01905434       0.05009721      -0.31727770      -0.00759230
Cu       3.85406352       2.22514461       8.00000000        4      -0.01904745       0.05010067      -0.31727908      -0.00758374
Cu       6.42343920       2.22514461       8.00000000        4      -0.00000881       0.01994357      -0.33517708      -0.03644463
Cu       2.56937568       4.45028922       8.00000000        4       0.00002124      -0.05700307      -0.33218048      -0.02279131
Cu       5.13875136       4.45028922       8.00000000        4       0.00728374      -0.08663912      -0.30818804       0.00485124
Cu       7.70812704       4.45028922       8.00000000        4      -0.00730451      -0.08663752      -0.30817051       0.00485310
Cu       1.28468784       0.74171487      10.09788646        3       0.06977030       0.01565592      -0.03874357       0.00230341
Cu       3.85406352       0.74171487      10.09788646        3      -0.06973639       0.01566108      -0.03866062       0.00230576
Cu       6.42343920       0.74171487      10.09788646        3      -0.00008294      -0.01471470      -0.13998376       0.04958682
Cu       2.56937568       2.96685948      10.09788646        3      -0.00001475       0.02759594       0.03243533      -0.00561368
Cu       5.13875136       2.96685948      10.09788646        3      -0.01414134       0.02267209      -0.05199474       0.00095483
Cu       7.70812704       2.96685948      10.09788646        3       0.01415598       0.02276964      -0.05205524       0.00094663
Cu       3.85406352       5.19200409      10.09788646        3      -0.05341360      -0.02277924      -0.04639302      -0.00048892
Cu       6.42343920       5.19200409      10.09788646        3       0.00003708       0.04142273      -0.02598970      -0.01570070
Cu       8.99281488       5.19200409      10.09788646        3       0.05333216      -0.02276000      -0.04635318      -0.00048443
Cu      -0.00001456       1.48341895      12.22216237        2       0.00596302       0.05447724       0.03878685      -0.03048308
Cu       2.56938632       1.48343972      12.22228812        2      -0.00012439      -0.01973600       0.04007116       0.01439061
Cu       5.13868200       1.48341490      12.22229490        2      -0.00565652       0.05440605       0.03848484      -0.03048618
Cu       1.28472730       3.70860469      12.22229670        2       0.02638528      -0.00059061       0.00481075       0.00336739
Cu       3.85404919       3.70853617      12.22226661        2      -0.02646084      -0.00035503       0.00497111       0.00337202
Cu       6.42343137       3.70855859      12.22219237        2       0.00018234       0.00132996       0.00779852       0.00514055
Cu       2.56933175       5.93372331      12.22226822        2       0.00008252      -0.09499260       0.05354578      -0.02657265
Cu       5.13873976       5.93371007      12.22221793        2       0.05584946      -0.02809904       0.11207949       0.00525938
Cu       7.70811165       5.93376676      12.22227910        2      -0.05588300      -0.02837477       0.11203363       0.00526709
Cu       0.00003176       0.00005032      14.34901118        1       0.39188086      -0.31300539       0.02480299       0.11277214
Cu       2.56930125       0.00001804      14.34916312        1       0.00035508       0.04426807       0.37320405      -0.07608905
Cu       5.13864853       0.00002580      14.34922433        1      -0.39167936      -0.31307606       0.02437022       0.11282798
Cu       1.28470809       2.22517124      14.34907163        1       0.30072299       0.14085182       0.24616248      -0.07293622
Cu       3.85409307       2.22518508      14.34928516        1      -0.30060838       0.14060568       0.24577070      -0.07295231
Cu       6.42349021       2.22507450      14.34904494        1      -0.00031542       0.81678067      -0.06451418       0.11271344
Cu       2.56959011       4.45037276      14.34913478        1      -0.00065205      -0.31794506       0.22846589      -0.04387815
Cu       5.13896751       4.45026038      14.34907842        1      -0.03458199      -0.01968748       0.36418402      -0.08311939
Cu       7.70816084       4.45028686      14.34912297        1       0.03431679      -0.01979272       0.36406634      -0.08314144
O        6.42342816       0.48252878      15.96068931        0      -0.00101906     -25.66900041      -7.29104824      -0.45203438
C        6.42345514       1.84652689      16.34818293        0      -0.01702839      25.61508593       7.18521951       0.09766818
H        5.51443371       2.13225076      16.88153988        0      -0.07896399       0.02509786       0.04604397       0.05611623
H        7.33191409       2.13225193      16.88091227        0       0.09861135       0.03133349       0.05775771       0.05617372
H        6.42371143       0.74850992      17.06639507        0      -0.00026609      -0.00367622       0.00186488       0.42121861
