31
Lattice="8.493 0.0 0.0 4.2465 6.005457892617349 0.0 0.0 0.0 20.003638595078232" Properties=species:S:1:pos:R:3:initial_charges:R:1:tags:I:1:forces:R:3 charge=0 spin=0 energy=-205.23330314150556 free_energy=-205.23330314150556 stress="0.05212641507387161 1.97337049030466e-05 7.166435534600168e-05 1.97337049030466e-05 0.018359389156103134 -0.0018184100044891238 7.166435534600168e-05 -0.0018184100044891238 0.008836441673338413" dipole="-0.3784727473050182 0.671862359527378 2.15254415248026" pbc="T T T"
Fe       0.00000000       0.00000000       8.00000000      -0.00569882        3       0.02909945      -0.09491234       0.52025187
Fe       2.83100000       0.00000000       8.00000000      -0.00582423        3      -0.04703843      -0.10487749       0.47771922
Fe       5.66200000       0.00000000       8.00000000      -0.00673978        3      -0.00288892      -0.10289615       0.56960940
Fe       1.41550000       2.00181930       8.00000000      -0.00651671        3       0.00117407      -0.12067289       0.36335176
Fe       4.24650000       2.00181930       8.00000000      -0.00677337        3       0.06306608      -0.13451225       0.46206468
Fe       7.07750000       2.00181930       8.00000000      -0.00585027        3      -0.01768262      -0.08870795       0.59203589
Fe       2.83100000       4.00363860       8.00000000      -0.00657011        3       0.03654400      -0.10652395       0.40554872
Fe       5.66200000       4.00363860       8.00000000      -0.00532196        3       0.02527813      -0.10100383       0.58667380
Fe       8.49300000       4.00363860       8.00000000      -0.00564292        3      -0.07344242      -0.09396534       0.54846466
Fe       0.00000000       2.00181930      10.00181930       0.00164826        2       0.21398321       0.19471899      -0.65459549
Fe       2.83100000       2.00181930      10.00181930       0.00332181        2      -0.06149893       0.22932227      -0.58437461
Fe       5.66200000       2.00181930      10.00181930      -0.00048899        2      -0.26325336      -0.04163809      -0.19682948
Fe       1.41550000       4.00363860      10.00181930       0.00051604        2       0.15723124       0.46220800      -0.92826569
Fe       4.24650000       4.00363860      10.00181930      -0.00123292        2       0.20420203       0.07183305      -0.67290312
Fe       7.07750000       4.00363860      10.00181930       0.00004536        2      -0.20241500      -0.25362656      -0.18987301
Fe       2.83100000       6.00545789      10.00181930       0.00333372        2       0.19380990       0.32281056      -0.44680721
Fe       5.66200000       6.00545789      10.00181930      -0.00029136        2       0.02619845      -0.08430602      -0.25089982
Fe       8.49300000       6.00545789      10.00181930       0.00148497        2      -0.26477906       0.09057173      -0.61989051
Fe       0.01265203      -0.55897414      11.89246926       0.04626555        1      -0.01259833      -0.00101914      -0.00502440
Fe       2.79161607      -0.71607973      11.95766190       0.00208910        1      -0.01222685       0.00113653       0.00214939
Fe       5.59475887      -0.49173610      11.80240773       0.00825026        1       0.01156139      -0.00814299      -0.01025915
Fe       1.52706856       1.41333905      11.86566814       0.02028286        1       0.00389397       0.00300945      -0.01053288
Fe       4.06782751       1.37215645      11.85271485      -0.00337313        1      -0.00563929      -0.00328129      -0.00223589
Fe       7.21936469       1.60836102      11.89849855       0.05835709        1      -0.01120698      -0.00350572       0.02032867
Fe       2.79474214       3.44061825      11.83231596      -0.00338951        1      -0.00674898      -0.00009789       0.00037481
Fe       5.35699948       3.31393744      11.96525702       0.01266865        1       0.01908055      -0.02345799       0.01191792
Fe       8.76776156       3.45090856      11.82873948       0.01586589        1      -0.00179112      -0.00502407       0.00656898
N        6.27824713       4.26692325      13.44845657      -0.32706044        0       0.01261881      -0.01541572       0.01518272
H        6.92335760       3.68173490      13.99790391       0.39311025        0      -0.02394280       0.01201296       0.00238369
H        5.69576717       4.80142935      14.10830175       0.25492932        0       0.00747193      -0.01238529      -0.00684303
O        7.91918770       0.58008908      13.16972638      -0.43139463        0       0.00193999       0.01234944      -0.00529199
