5
Lattice="21.467562318286515 0.0 0.0 0.0 21.407574229432765 0.0 0.0 0.0 21.35786552278602" Properties=species:S:1:pos:R:3:forces:R:3 charge=0 spin=1 energy=-1101.8179597274811 stress="1.1232474150801863e-07 -4.2635875274754653e-07 2.976878761273838e-07 -4.2635875274754653e-07 -7.093487397469289e-07 5.423169682217122e-07 2.976878761273838e-07 5.423169682217122e-07 -2.942434207398037e-07" free_energy=-1101.8179597274811 pbc="T T T"
C       10.71809929      10.65203470      10.67613340      -0.01545019      -0.00194963       0.00364676
H       11.24749643      11.39927707      10.08961656       0.00656219       0.00717135      -0.00548926
H       11.43380999      10.06585349      11.24822264       0.00075183      -0.00213146       0.00078749
H       10.16128142       9.99634732      10.01017559       0.00374206      -0.00163756       0.00111400
H       10.02830394      11.14716650      11.35630992       0.00439411      -0.00145271      -0.00005899
