29
Lattice="8.493 0.0 0.0 4.2465 6.005457892617349 0.0 0.0 0.0 20.003638595078232" Properties=species:S:1:pos:R:3:tags:I:1:forces:R:3 charge=0 spin=0 energy=-191.95985464259104 free_energy=-191.95985464259104 stress="0.04384239763021469 -0.001357200206257403 0.00013754796236753464 -0.001357200206257403 0.02664870209991932 -0.0006613587029278278 0.00013754796236753464 -0.0006613587029278278 0.008536966517567635" pbc="T T T"
Fe       0.00000000       0.00000000       8.00000000        3       0.05519202      -0.05261168       0.52614546
Fe       2.83100000       0.00000000       8.00000000        3      -0.07776978      -0.03433461       0.52779001
Fe       5.66200000       0.00000000       8.00000000        3       0.05267789      -0.01568714       0.37574807
Fe       1.41550000       2.00181930       8.00000000        3       0.01811149      -0.04627360       0.48499742
Fe       4.24650000       2.00181930       8.00000000        3      -0.05948466      -0.05110444       0.54319936
Fe       7.07750000       2.00181930       8.00000000        3       0.03573335      -0.03099856       0.41434920
Fe       2.83100000       4.00363860       8.00000000        3       0.12486474      -0.05948983       0.51572752
Fe       5.66200000       4.00363860       8.00000000        3      -0.07331347      -0.05150606       0.55419576
Fe       8.49300000       4.00363860       8.00000000        3       0.00580129      -0.00890279       0.41722605
Fe       0.00000000       2.00181930      10.00181930        2       0.00380504       0.30935970      -0.45823178
Fe       2.83100000       2.00181930      10.00181930        2      -0.08901833      -0.19438545       0.10892896
Fe       5.66200000       2.00181930      10.00181930        2      -0.04807773      -0.02114536      -0.96071434
Fe       1.41550000       4.00363860      10.00181930        2       0.18667012       0.35392940      -0.66568816
Fe       4.24650000       4.00363860      10.00181930        2      -0.11635979      -0.10724493       0.10354091
Fe       7.07750000       4.00363860      10.00181930        2      -0.14123654      -0.12774259      -0.85279250
Fe       2.83100000       6.00545789      10.00181930        2       0.13889576       0.44864655      -0.64300179
Fe       5.66200000       6.00545789      10.00181930        2      -0.15240066      -0.18207814       0.16116090
Fe       8.49300000       6.00545789      10.00181930        2       0.11626058      -0.10291593      -1.16675246
Fe      -0.39294215      -0.64081239      11.89914594        1       0.00730340       0.00696879       0.00603675
Fe       3.15129007       0.29900728      11.82621820        1      -0.00680138      -0.00967004       0.00247421
Fe       5.67580923      -0.51311943      11.82642584        1       0.00082291      -0.01093635       0.00347601
Fe       1.05372265       1.35349095      11.91274636        1       0.00686458      -0.00735414      -0.00028728
Fe       4.55718257       2.19495814      11.91059787        1       0.00223526      -0.01101693       0.00913686
Fe       7.10981515       1.49918791      11.89013415        1       0.00409051       0.00620810       0.00227737
Fe       2.47355433       3.34496955      11.89808500        1       0.00394548       0.00224333       0.00375771
Fe       5.98591592       4.41079687      11.91895696        1      -0.00518201      -0.00163310      -0.01472726
Fe       8.55500895       3.53463000      11.82006576        1       0.01218467      -0.00591090       0.00146166
O        6.00568889       2.74154488      13.11155885        0       0.00060694       0.00015767       0.01102289
H        5.95352114       2.68862681      14.08430379        0      -0.00642145       0.00542915      -0.01045613
