41
Lattice="7.708127040155146 0.0 0.0 3.854063520077573 6.675433832372109 0.0 0.0 0.0 22.29365937364323" Properties=species:S:1:pos:R:3:tags:I:1:forces:R:3:charge:R:1 energy=-4706.224406656934 free_energy=-4706.224406656934 stress="-0.013285652105834649 9.550953532129652e-06 -1.699707306005458e-05 9.550953532129652e-06 -0.013269220419276903 -6.56701557391853e-06 -1.699707306005458e-05 -6.56701557391853e-06 -0.015040160102279918" dipole="0.15143745404049921 0.4721700537211969 1.0910747589011505" pbc="T T F"
Cu       0.00000000      -0.00000000       8.00000000        4      -0.05861251      -0.01337566      -0.29295984       0.00045371
Cu       2.56937568       0.00000000       8.00000000        4       0.05858261      -0.01341145      -0.29243674       0.00144847
Cu       5.13875136      -0.00000000       8.00000000        4       0.00001116       0.00003319      -0.34645553      -0.01311062
Cu       1.28468784       2.22514461       8.00000000        4      -0.00056007      -0.00041481      -0.30641384       0.01720634
Cu       3.85406352       2.22514461       8.00000000        4       0.04154654      -0.04402019      -0.29288660       0.00059929
Cu       6.42343920       2.22514461       8.00000000        4      -0.04099848      -0.04404198      -0.29265074       0.00134821
Cu       2.56937568       4.45028922       8.00000000        4      -0.01733292       0.05796461      -0.29250324       0.00151704
Cu       5.13875136       4.45028922       8.00000000        4      -0.00029237      -0.00024980      -0.24781925      -0.02197302
Cu       7.70812704       4.45028922       8.00000000        4       0.01761684       0.05748815      -0.29280979       0.00055406
Cu       1.28468784       0.74171487      10.09788646        3      -0.00334940       0.04616034      -0.02197678      -0.02445079
Cu       3.85406352       0.74171487      10.09788646        3      -0.02582598       0.01870541      -0.03865980      -0.01115239
Cu       6.42343920       0.74171487      10.09788646        3       0.02928914       0.01330783      -0.03809552      -0.01117715
Cu       2.56937568       2.96685948      10.09788646        3      -0.03822989      -0.02544550      -0.02145875      -0.02465452
Cu       5.13875136       2.96685948      10.09788646        3      -0.00315744      -0.00845242      -0.11639362       0.02893887
Cu       7.70812704       2.96685948      10.09788646        3       0.04132521      -0.02078467      -0.02196666      -0.02445696
Cu       3.85406352       5.19200409      10.09788646        3      -0.00591082       0.00679433      -0.11635286       0.02895123
Cu       6.42343920       5.19200409      10.09788646        3       0.00885840       0.00152445      -0.11719210       0.02914801
Cu       8.99281488       5.19200409      10.09788646        3      -0.00292337      -0.03173542      -0.03863254      -0.01116471
Cu      -0.00001456       1.48341895      12.22216237        2      -0.02723795      -0.01898182       0.10804011       0.02682766
Cu       2.56938632       1.48343972      12.22228812        2       0.03033443      -0.01391979       0.10736003       0.02695456
Cu       5.13868200       1.48341490      12.22229490        2      -0.00325752      -0.03123728       0.05616158      -0.02347785
Cu       1.28472730       3.70860469      12.22229670        2      -0.00274812       0.03327671       0.10734514       0.02696470
Cu       3.85404919       3.70853617      12.22226661        2       0.03229257       0.01577368       0.10721201      -0.04332861
Cu       6.42343137       3.70855859      12.22219237        2      -0.03014153       0.02002138       0.10759669      -0.04331062
Cu       2.56933175       5.93372331      12.22226822        2      -0.02564646       0.01807321       0.05630058      -0.02345131
Cu       5.13873976       5.93371007      12.22221793        2      -0.00284291      -0.03627731       0.10759866      -0.04330683
Cu       7.70811165       5.93376676      12.22227910        2       0.02976140       0.01331734       0.05616037      -0.02369768
Cu       0.00003176       0.00005032      14.34901118        1      -0.10147824       0.18346815       0.26164869      -0.00907812
Cu       2.56930125       0.00001804      14.34916312        1       0.09732757       0.17881895       0.27250736      -0.01050314
Cu       5.13864853       0.00002580      14.34922433        1       0.00128571       0.00020095       0.37054090      -0.03929077
Cu       1.28470809       2.22517124      14.34907163        1       0.00113531       0.00071498       0.32338295      -0.04512484
Cu       3.85409307       2.22518508      14.34928516        1      -0.10893962      -0.17876048       0.26071161      -0.00961867
Cu       6.42349021       2.22507450      14.34904494        1       0.10520677      -0.17313868       0.27214789      -0.01110934
Cu       2.56959011       4.45037276      14.34913478        1      -0.20308200      -0.00545083       0.27150430      -0.01162956
Cu       5.13896751       4.45026038      14.34907842        1      -0.00763622      -0.00406483       0.07845736       0.43109145
Cu       7.70816084       4.45028686      14.34912297        1       0.21026787      -0.00498971       0.26191405      -0.00852568
O        5.14505209       4.45359095      16.09383167        0       0.00668408       0.00426246       0.00388542      -0.46381821
C        5.13880801       4.44843025      17.48383726        0      -0.03526984      -0.01153960       0.00563464       0.20457365
H        6.15676113       4.32175037      17.87310664        0       0.02881128      -0.00255897       0.00280372       0.04174231
H        4.73450984       5.39304458      17.87083742        0      -0.00065295       0.00847973      -0.00499082       0.04161900
H        4.51778613       3.62551768      17.86305219        0       0.00578970       0.00446536      -0.00625905       0.04147284
