41
Lattice="7.708127040155146 0.0 0.0 3.854063520077573 6.675433832372109 0.0 0.0 0.0 22.29365937364323" Properties=species:S:1:pos:R:3:tags:I:1:forces:R:3:charge:R:1 energy=-4705.870247594487 free_energy=-4705.870247594487 stress="-0.012712845319833816 2.7839451133134707e-05 -2.2383228032437658e-05 2.7839451133134707e-05 -0.012678098637674901 -1.6462669935976942e-05 -2.2383228032437658e-05 -1.6462669935976942e-05 -0.00809071941898621" dipole="-0.041610300000935824 0.22259405183007197 0.801152290257666" pbc="T T F"
Cu       0.00000000      -0.00000000       8.00000000        4      -0.07014419      -0.00360077      -0.29505246       0.00112018
Cu       2.56937568       0.00000000       8.00000000        4       0.07004108      -0.00365744      -0.29434720       0.00219997
Cu       5.13875136      -0.00000000       8.00000000        4       0.00010300       0.00010930      -0.36034111      -0.01590007
Cu       1.28468784       2.22514461       8.00000000        4      -0.00064267      -0.00057582      -0.30858903       0.01530959
Cu       3.85406352       2.22514461       8.00000000        4       0.03910082      -0.05870323      -0.29496464       0.00133657
Cu       6.42343920       2.22514461       8.00000000        4      -0.03847014      -0.05896222      -0.29474495       0.00205914
Cu       2.56937568       4.45028922       8.00000000        4      -0.03133048       0.06313629      -0.29451504       0.00230611
Cu       5.13875136       4.45028922       8.00000000        4      -0.00045899      -0.00042375      -0.23366608      -0.01251351
Cu       7.70812704       4.45028922       8.00000000        4       0.03177258       0.06262114      -0.29468547       0.00131163
Cu       1.28468784       0.74171487      10.09788646        3      -0.00321969       0.04055284      -0.02435582      -0.01885036
Cu       3.85406352       0.74171487      10.09788646        3      -0.01676676       0.01315970      -0.03587138      -0.01254998
Cu       6.42343920       0.74171487      10.09788646        3       0.02002654       0.00861740      -0.03493379      -0.01261491
Cu       2.56937568       2.96685948      10.09788646        3      -0.03341570      -0.02223001      -0.02377997      -0.01916530
Cu       5.13875136       2.96685948      10.09788646        3      -0.00266950      -0.01327511      -0.10866320       0.02195709
Cu       7.70812704       2.96685948      10.09788646        3       0.03604337      -0.01871015      -0.02431148      -0.01888697
Cu       3.85406352       5.19200409      10.09788646        3      -0.01025226       0.00880877      -0.10874392       0.02200854
Cu       6.42343920       5.19200409      10.09788646        3       0.01252631       0.00427324      -0.11001673       0.02235100
Cu       8.99281488       5.19200409      10.09788646        3      -0.00222111      -0.02103485      -0.03599653      -0.01254711
Cu      -0.00001456       1.48341895      12.22216237        2      -0.02507663      -0.01719269       0.13271047       0.01497459
Cu       2.56938632       1.48343972      12.22228812        2       0.02802314      -0.01255905       0.13174825       0.01522779
Cu       5.13868200       1.48341490      12.22229490        2      -0.00295896      -0.02198641       0.10297458      -0.01513686
Cu       1.28472730       3.70860469      12.22229670        2      -0.00200735       0.03060667       0.13170818       0.01527342
Cu       3.85404919       3.70853617      12.22226661        2       0.02866739       0.01386464       0.15967552      -0.03158128
Cu       6.42343137       3.70855859      12.22219237        2      -0.02718034       0.01776271       0.16047431      -0.03145226
Cu       2.56933175       5.93372331      12.22226822        2      -0.01811254       0.01281849       0.10334379      -0.01519248
Cu       5.13873976       5.93371007      12.22221793        2      -0.00268378      -0.03271651       0.16062734      -0.03143259
Cu       7.70811165       5.93376676      12.22227910        2       0.02071553       0.00858276       0.10531668      -0.01585656
Cu       0.00003176       0.00005032      14.34901118        1      -0.08448981       0.15388962       0.28477158       0.01723884
Cu       2.56930125       0.00001804      14.34916312        1       0.07977791       0.14810329       0.29853292       0.01747644
Cu       5.13864853       0.00002580      14.34922433        1       0.00398778       0.00233019       0.37201861      -0.04865638
Cu       1.28470809       2.22517124      14.34907163        1       0.00337002       0.00255181       0.33351297      -0.05140934
Cu       3.85409307       2.22518508      14.34928516        1      -0.09208386      -0.14967779       0.28217704       0.01632223
Cu       6.42349021       2.22507450      14.34904494        1       0.08758569      -0.14310165       0.29663709       0.01642461
Cu       2.56959011       4.45037276      14.34913478        1      -0.16864736      -0.00542647       0.29507664       0.01585533
Cu       5.13896751       4.45026038      14.34907842        1      -0.00222758      -0.00141162       1.64961434       0.28563471
Cu       7.70816084       4.45028686      14.34912297        1       0.17575772      -0.00507460       0.28592734       0.01796889
O        5.14901805       4.45751993      16.32788940        0       0.00045697      -0.00144479      -0.39094780      -0.47785514
C        5.13969693       4.44911634      17.74169886        0      -0.07911049      -0.04760095      -0.39357062       0.20056456
H        6.14150549       4.32195044      18.18554381        0       0.05291992      -0.00206971      -0.43829656       0.03902116
H        4.73884558       5.37950434      18.18113030        0      -0.00236762       0.01907673      -0.44324604       0.03892054
H        4.52386297       3.63423066      18.16615845        0       0.02566203       0.03057001      -0.44320785       0.03873815
