41
Lattice="7.708127040155146 0.0 0.0 3.854063520077573 6.675433832372109 0.0 0.0 0.0 22.29365937364323" Properties=species:S:1:pos:R:3:tags:I:1:forces:R:3:charge:R:1 energy=-4706.877476262087 free_energy=-4706.877476262087 stress="-0.013758873189436608 9.378777145678652e-06 5.681168276054366e-05 9.378777145678652e-06 -0.013750843219355022 -4.385497698743444e-05 5.681168276054366e-05 -4.385497698743444e-05 -0.014176403351404833" dipole="0.731086540741319 0.41758335286788617 1.088971241065088" pbc="T T F"
Cu      -0.00000000      -0.00000000       8.00000000        4      -0.01759089      -0.01331229      -0.27730396       0.00878931
Cu       2.56937568       0.00000000       8.00000000        4       0.01936059      -0.00866263      -0.27786857       0.00885962
Cu       5.13875136       0.00000000       8.00000000        4      -0.00180250      -0.03848328      -0.32196441      -0.00544837
Cu       1.28468784       2.22514461       8.00000000        4      -0.00207782       0.02207113      -0.27724326       0.00872490
Cu       3.85406352       2.22514461       8.00000000        4       0.04482712       0.02358008      -0.27250743      -0.00839363
Cu       6.42343920       2.22514461       8.00000000        4      -0.04279745       0.02734754      -0.27234607      -0.00887374
Cu       2.56937568       4.45028922       8.00000000        4      -0.03220979       0.02114916      -0.32210592      -0.00548239
Cu       5.13875136       4.45028922       8.00000000        4      -0.00269611      -0.05043696      -0.27262241      -0.00839560
Cu       7.70812704       4.45028922       8.00000000        4       0.03485453       0.01675118      -0.32193693      -0.00540881
Cu       1.28468784       0.74171487      10.09788646        3       0.00047082      -0.00016527      -0.00262121      -0.02509220
Cu       3.85406352       0.74171487      10.09788646        3      -0.01428325      -0.08705103      -0.06638161      -0.00449904
Cu       6.42343920       0.74171487      10.09788646        3       0.01376417      -0.08585454      -0.06376829      -0.00311382
Cu       2.56937568       2.96685948      10.09788646        3      -0.08270922       0.03021016      -0.06378684      -0.00354560
Cu       5.13875136       2.96685948      10.09788646        3       0.00114527      -0.00086181      -0.19946136       0.04962771
Cu       7.70812704       2.96685948      10.09788646        3       0.08170408       0.03078002      -0.06706453      -0.00395679
Cu       3.85406352       5.19200409      10.09788646        3      -0.06742565       0.05642533      -0.06686684      -0.00447463
Cu       6.42343920       5.19200409      10.09788646        3       0.06809946       0.05617568      -0.06325296      -0.00370513
Cu       8.99281488       5.19200409      10.09788646        3      -0.00057098       0.00038476       0.02898872      -0.01600893
Cu      -0.00001456       1.48341895      12.22216237        2       0.01310812      -0.00419066       0.11294378       0.00054646
Cu       2.56938632       1.48343972      12.22228812        2      -0.01169037      -0.00782398       0.11238672       0.00120371
Cu       5.13868200       1.48341490      12.22229490        2      -0.00105101       0.01280782       0.04137292      -0.04827123
Cu       1.28472730       3.70860469      12.22229670        2      -0.00141624      -0.03643476       0.07649111       0.00667623
Cu       3.85404919       3.70853617      12.22226661        2       0.01079616      -0.00345207       0.04154462      -0.04814154
Cu       6.42343137       3.70855859      12.22219237        2      -0.00923306      -0.00895904       0.04133413      -0.04827193
Cu       2.56933175       5.93372331      12.22226822        2       0.03295017       0.01542741       0.07668851       0.00672038
Cu       5.13873976       5.93371007      12.22221793        2      -0.00383980       0.01372357       0.11243450       0.00128222
Cu       7.70811165       5.93376676      12.22227910        2      -0.03001602       0.01924941       0.07878691       0.00718957
Cu       0.00003176       0.00005032      14.34901118        1      -0.00478654      -0.01006895       0.36089821      -0.06213041
Cu       2.56930125       0.00001804      14.34916312        1       0.00981911      -0.00120234       0.35970363      -0.06111696
Cu       5.13864853       0.00002580      14.34922433        1      -0.00091987      -0.23763061       0.26279790      -0.03140657
Cu       1.28470809       2.22517124      14.34907163        1      -0.00255584       0.00927742       0.36063822      -0.06217314
Cu       3.85409307       2.22518508      14.34928516        1      -0.22495876      -0.11867623       0.27684398       0.18343946
Cu       6.42349021       2.22507450      14.34904494        1       0.22313552      -0.14061964       0.27349528       0.18940310
Cu       2.56959011       4.45037276      14.34913478        1      -0.20523632       0.11872910       0.26418334      -0.03130086
Cu       5.13896751       4.45026038      14.34907842        1       0.00989249       0.25285096       0.27650860       0.18268315
Cu       7.70816084       4.45028686      14.34912297        1       0.20590823       0.11900962       0.26313687      -0.03144433
O        5.14748375       2.96040986      15.78785893        0       0.04789671      -0.03371636       0.18877396      -0.43666293
C        5.14374826       2.96413354      17.21056682        0      -0.12262717       0.08145825       0.21480369       0.17661830
H        6.13430625       2.78806901      17.63496923        0       0.20657101      -0.04105174      -0.25609382       0.04510758
H        4.79511492       3.92290908      17.60220761        0      -0.04841336       0.16116016      -0.15659997       0.04527198
H        4.47979649       2.19774556      17.61747537        0      -0.09339552      -0.15991457      -0.20295921       0.04517489
