2
Lattice="20.698000449549408 0.0 0.0 0.0 20.0 0.0 0.0 0.0 20.0" Properties=species:S:1:pos:R:3:forces:R:3:charge:R:1 energy=-28.21026475866197 stress="1.5754835379192624e-07 0.0 0.0 0.0 8.861502801128546e-11 0.0 0.0 0.0 8.861502801128546e-11" dipole="6.697553845333758e-15 6.647785620594872e-15 6.647785620594872e-15" free_energy=-28.21026475866197 pbc="T T F"
H       10.73181290      10.00000000      10.00000000      -0.00170288      -0.00000000      -0.00000000       0.00000000
H        9.96618755      10.00000000      10.00000000       0.00170288      -0.00000000      -0.00000000       0.00000000
