2
Lattice="20.698000449549408 0.0 0.0 0.0 20.0 0.0 0.0 0.0 20.0" Properties=species:S:1:pos:R:3:forces:R:3:charge:R:1 energy=-28.21015946761388 stress="9.146206346427894e-06 0.0 0.0 0.0 8.881400371412193e-11 0.0 0.0 0.0 8.881400371412193e-11" dipole="-8.225066125848475e-16 -1.027010507886894e-15 -1.027010507886894e-15" free_energy=-28.21015946761388 pbc="T T F"
H       10.73286000      10.00000000      10.00000000      -0.09863324      -0.00000000      -0.00000000       0.00000000
H        9.96514045      10.00000000      10.00000000       0.09863324      -0.00000000      -0.00000000      -0.00000000
