28
Lattice="8.493 0.0 0.0 4.2465 6.005457892617349 0.0 0.0 0.0 20.003638595078232" Properties=species:S:1:pos:R:3:tags:I:1:forces:R:3 charge=0 spin=0 energy=-187.13143423667168 free_energy=-187.13143423667168 stress="0.04607350006699562 -0.00015665452519897372 -2.7019111392689865e-09 -0.00015665452519897372 0.03255615010857582 -8.881571922358944e-09 -2.7019111392689865e-09 -8.881571922358944e-09 0.010734587907791138" pbc="T T T"
Fe       0.00000000       0.00000000       8.00000000        3       0.01155886      -0.00330953       0.55528855
Fe       2.83100000       0.00000000       8.00000000        3       0.01242011      -0.01795012       0.55965871
Fe       5.66200000       0.00000000       8.00000000        3       0.00019982      -0.03105693       0.37489715
Fe       1.41550000       2.00181930       8.00000000        3       0.00000040       0.00000036       0.65517241
Fe       4.24650000       2.00181930       8.00000000        3       0.10451107      -0.00916088       0.71422964
Fe       7.07750000       2.00181930       8.00000000        3      -0.10451178       0.00916180       0.71422923
Fe       2.83100000       4.00363860       8.00000000        3      -0.01155872       0.00331021       0.55528915
Fe       5.66200000       4.00363860       8.00000000        3      -0.00019930       0.03105730       0.37489587
Fe       8.49300000       4.00363860       8.00000000        3      -0.01241982       0.01795164       0.55965793
Fe       0.00000000       2.00181930      10.00181930        2      -0.51267511      -0.02058071      -0.41053194
Fe       2.83100000       2.00181930      10.00181930        2       0.51267320       0.02057726      -0.41053134
Fe       5.66200000       2.00181930      10.00181930        2      -0.00000010      -0.00000238       0.16468766
Fe       1.41550000       4.00363860      10.00181930        2      -0.02359322      -0.01217293      -0.62615925
Fe       4.24650000       4.00363860      10.00181930        2       0.31002259       0.16569075      -0.75935543
Fe       7.07750000       4.00363860      10.00181930        2      -0.29648140       0.16447894      -0.71222961
Fe       2.83100000       6.00545789      10.00181930        2      -0.31002069      -0.16569419      -0.75935119
Fe       5.66200000       6.00545789      10.00181930        2       0.02359014       0.01216921      -0.62615299
Fe       8.49300000       6.00545789      10.00181930        2       0.29648376      -0.16448312      -0.71222669
Fe      -0.03470259       0.02872411      11.82926424        1      -0.10003840      -0.08547751      -0.01967066
Fe       2.85815934       0.02004515      11.83218323        1       0.08674221      -0.10203843      -0.01029912
Fe       5.66637854      -0.00547013      11.88889814        1       0.00623096       0.39440748      -0.00279545
Fe       1.41549942       2.00181946      11.87401074        1      -0.00000196       0.00000168       0.02439993
Fe       4.06865273       2.00538038      12.09142907        1      -0.45248106      -0.03318066       0.13576190
Fe       7.25534733       1.99825922      12.09142883        1       0.45248228       0.03318337       0.13576181
Fe       2.86570204       3.97491491      11.82926386        1       0.10003753       0.08547979      -0.01966670
Fe       5.65762209       4.00911001      11.88889681        1      -0.00623023      -0.39439726      -0.00279764
Fe       8.46584095       3.98359465      11.83218322        1      -0.08674438       0.10204204      -0.01029647
O        5.66199980       2.00181819      12.96488488        0       0.00000309      -0.00000707      -0.44186524
