28
Lattice="8.493 0.0 0.0 4.2465 6.005457892617349 0.0 0.0 0.0 20.003638595078232" Properties=species:S:1:pos:R:3:tags:I:1:forces:R:3 charge=0 spin=0 energy=-183.2031388730787 free_energy=-183.2031388730787 stress="0.04872013255953789 -8.366859401576221e-05 -1.2931517630931921e-05 -8.366859401576221e-05 0.03134956210851669 -0.0008146863547153771 -1.2931517630931921e-05 -0.0008146863547153771 0.011826801113784313" pbc="T T T"
Fe       0.00000000       0.00000000       8.00000000        3       0.00100594       0.01805808       0.52025175
Fe       2.83100000       0.00000000       8.00000000        3       0.00020244       0.00467662       0.55105275
Fe       5.66200000       0.00000000       8.00000000        3      -0.00199458       0.01659666       0.48985022
Fe       1.41550000       2.00181930       8.00000000        3      -0.04597831       0.01447230       0.59956461
Fe       4.24650000       2.00181930       8.00000000        3       0.05329338       0.00131449       0.58851230
Fe       7.07750000       2.00181930       8.00000000        3      -0.00569452       0.00162978       0.51822162
Fe       2.83100000       4.00363860       8.00000000        3      -0.00689535       0.01630775       0.68765330
Fe       5.66200000       4.00363860       8.00000000        3      -0.00674838       0.01577756       0.51507270
Fe       8.49300000       4.00363860       8.00000000        3       0.00922503       0.01614052       0.51593256
Fe       0.00000000       2.00181930      10.00181930        2      -0.32458568      -0.05193621      -0.33330128
Fe       2.83100000       2.00181930      10.00181930        2       0.01451694      -0.19333963      -0.54027188
Fe       5.66200000       2.00181930      10.00181930        2       0.31372234      -0.03621452      -0.30313951
Fe       1.41550000       4.00363860      10.00181930        2      -0.27672771      -0.07333075      -0.15238158
Fe       4.24650000       4.00363860      10.00181930        2       0.25584072      -0.06982629      -0.16504897
Fe       7.07750000       4.00363860      10.00181930        2       0.01817046      -0.01631028      -0.73490262
Fe       2.83100000       6.00545789      10.00181930        2      -0.02053424      -0.02157721      -0.68059832
Fe       5.66200000       6.00545789      10.00181930        2       0.00692921      -0.08238741      -0.61722237
Fe       8.49300000       6.00545789      10.00181930        2       0.01676402      -0.09665427      -0.65162116
Fe      -0.00734042      -0.01173933      11.85171076        1       0.09905287      -0.11212827      -0.01668032
Fe       2.83284724       0.07383774      11.85772762        1       0.00741578       0.34292415      -0.01160175
Fe       5.66443761      -0.01041434      11.85215366        1      -0.09959479      -0.09189222      -0.01655521
Fe       1.41056029       2.03738023      11.85218831        1      -0.11889412       0.22063328      -0.03076480
Fe       4.24726254       2.03776005      11.85345868        1       0.09483912       0.22019412      -0.01861729
Fe       7.08481107       1.95347181      11.97230444        1       0.02370803      -0.33144885      -0.15801051
Fe       2.83276366       4.01078387      11.86549606        1       0.00441463       0.05007799      -0.00498234
Fe       5.76554537       4.01373446      11.92446569        1       0.28977248       0.07377417      -0.04716225
Fe       8.38424647       4.01975878      11.93080820        1      -0.30708310       0.10467205      -0.03963823
H        7.08071176       3.29119629      13.07130267        0       0.00585725       0.05979654      -0.46361220
