29
Lattice="8.493 0.0 0.0 4.2465 6.005457892617349 0.0 0.0 0.0 20.003638595078232" Properties=species:S:1:pos:R:3:tags:I:1:forces:R:3:charge:R:1 charge=0 spin=0 energy=-2088.5453718897647 free_energy=-2088.5453718897647 stress="0.02200065816909579 0.0004227263882150454 -0.0014923575361903436 0.0004227263882150454 0.0017724309675619598 0.0031951750418690826 -0.0014923575361903436 0.0031951750418690826 -0.010673333155995435" dipole="0.02229654234615809 0.10967712119749547 0.43227160100186884" pbc="T T T"
Fe       0.00000000       0.00000000       8.00000000        3      -0.09153509       0.02217003       0.00062661      -0.00439850
Fe       2.83100000       0.00000000       8.00000000        3      -0.01365092      -0.04216665      -0.18655154      -0.00239904
Fe       5.66200000       0.00000000       8.00000000        3       0.08935597      -0.00273010      -0.03221575      -0.00354774
Fe       1.41550000       2.00181930       8.00000000        3       0.00277728      -0.00579474       0.02890400      -0.00351711
Fe       4.24650000       2.00181930       8.00000000        3       0.07664366       0.00571522       0.00846738      -0.00311576
Fe       7.07750000       2.00181930       8.00000000        3      -0.01831762       0.01012816      -0.07884095      -0.00513382
Fe       2.83100000       4.00363860       8.00000000        3      -0.00673986       0.04937286      -0.16818931      -0.00281053
Fe       5.66200000       4.00363860       8.00000000        3       0.06116737       0.00340809      -0.03721541      -0.00348958
Fe       8.49300000       4.00363860       8.00000000        3      -0.09007295      -0.03146657       0.00749957      -0.00408736
Fe       0.00000000       2.00181930      10.00181930        2       0.16935695      -0.01365900      -0.10421671       0.00319044
Fe       2.83100000       2.00181930      10.00181930        2      -0.19308094       0.02938292      -1.20512405       0.00490048
Fe       5.66200000       2.00181930      10.00181930        2      -0.02396232      -0.00839755      -0.23857171       0.00233152
Fe       1.41550000       4.00363860      10.00181930        2       0.28725013      -0.09566754      -0.85355051       0.00443209
Fe       4.24650000       4.00363860      10.00181930        2      -0.30197843      -0.27538098      -0.73395912       0.00252501
Fe       7.07750000       4.00363860      10.00181930        2       0.05586208      -0.16995030       0.40770264       0.00195096
Fe       2.83100000       6.00545789      10.00181930        2      -0.04868245       0.18188484       0.36246820       0.00257663
Fe       5.66200000       6.00545789      10.00181930        2       0.28221140       0.16175926      -0.65156512       0.00325956
Fe       8.49300000       6.00545789      10.00181930        2      -0.26714458       0.13581155      -0.97560857       0.00171781
Fe       0.28239819       0.14448347      11.85446863        1      -0.17574138       0.02608465       0.33908556       0.00194576
Fe       2.83520669      -0.39858603      11.85524643        1      -0.03177871      -0.50360781      -0.03645103      -0.00169704
Fe       5.36030756       0.15818307      11.85448413        1       0.43478757      -0.29365206       1.03707121       0.01238053
Fe       1.69185631       1.99567079      11.95831334        1      -0.21332120      -0.00599036       0.71431298      -0.00243499
Fe       3.97400324       2.01030553      11.95735519        1       0.94191136       3.34864891      -5.75540934      -0.02584070
Fe       7.07262559       2.00899732      12.01387572        1      -1.50113239      -0.24655580       4.23253050       0.01264657
Fe       2.83019572       4.40394869      11.85510849        1       0.04739016       0.43806995       0.02270960      -0.00095689
Fe       5.37676556       3.87270238      11.85322702        1       0.02353095       0.27094880       0.77094614       0.01153096
Fe       8.79793012       3.84489655      11.85537756        1      -0.28843609       0.03817370       0.46063479       0.00178218
N        6.23895913       1.86605741      13.47939315        0      -0.00301287      -0.00053913       0.00655215      -0.09098470
H        3.89223831       1.48649309      13.08665310        0       0.00552709       0.00093457      -0.00501148       0.08724328
