80
Lattice="7.301476912458046 8.56174059504503 0.0 -10.039530754629814 8.561740595045036 0.0 0.0 -0.0 48.05767589383648" Properties=species:S:1:pos:R:3:tags:I:1:forces:R:3 energy=-383.43851208536034 pbc="T T F"
Pd      -0.61268461       2.92689768      20.42408820       10      -0.03146138       0.02683037       0.13877978
Pd      -9.73953075       8.86174060      20.00000000       10      -0.11845301       0.10101692       0.47014452
Pd       1.21268461       5.06733283      20.42408820       10      -0.03146131       0.02683026       0.13877966
Pd      -7.91416153      11.00217574      20.00000000       10      -0.11845286       0.10101698       0.47014485
Pd       3.03805384       7.20776798      20.42408820       10      -0.03146133       0.02683033       0.13877900
Pd      -6.08879230      13.14261089      20.00000000       10      -0.11845289       0.10101698       0.47014504
Pd       4.86342307       9.34820313      20.42408820       10      -0.03146130       0.02683031       0.13877955
Pd      -4.26342307      15.28304604      20.00000000       10      -0.11845287       0.10101706       0.47014525
Pd      -3.35073846       3.41336022      20.84817641        9       0.05166097      -0.04405666       0.08251470
Pd      -4.26342307       6.04025790      21.27226461        9      -0.02009857       0.01714014       0.03430643
Pd      -1.52536923       5.55379537      20.84817641        9       0.05166099      -0.04405668       0.08251465
Pd      -2.43805384       8.18069305      21.27226461        9      -0.02009856       0.01714018       0.03430623
Pd       0.30000000       7.69423051      20.84817641        9       0.05166095      -0.04405659       0.08251425
Pd      -0.61268461      10.32112820      21.27226461        9      -0.02009860       0.01714014       0.03430585
Pd       2.12536923       9.83466566      20.84817641        9       0.05166099      -0.04405663       0.08251456
Pd       1.21268461      12.46156335      21.27226461        9      -0.02009850       0.01714002       0.03430611
Pd      -7.00147691       6.52672043      21.69635282        8       0.00333712      -0.00284589      -0.01660204
Pd      -7.91416153       9.15361812      22.12044102        8       0.09331732      -0.07958126      -0.33013642
Pd      -5.17610768       8.66715558      21.69635282        8       0.00333708      -0.00284593      -0.01660182
Pd      -6.08879230      11.29405326      22.12044102        8       0.09331734      -0.07958125      -0.33013637
Pd      -3.35073846      10.80759073      21.69635282        8       0.00333717      -0.00284590      -0.01660178
Pd      -4.26342307      13.43448841      22.12044102        8       0.09331734      -0.07958120      -0.33013629
Pd      -1.52536923      12.94802588      21.69635282        8       0.00333706      -0.00284585      -0.01660194
Pd      -2.43805384      15.57492356      22.12044102        8       0.09331712      -0.07958128      -0.33013638
Pd      -1.52536923       3.70523774      22.96861743        7      -0.02708544       0.02309859      -0.17865523
Pd      -0.61268461       1.07834005      22.54452923        7       0.01582307      -0.01349400      -0.15823020
Pd       0.30000000       5.84567289      22.96861743        7      -0.02708550       0.02309866      -0.17865505
Pd       1.21268461       3.21877520      22.54452923        7       0.01582316      -0.01349399      -0.15823034
Pd       2.12536923       7.98610803      22.96861743        7      -0.02708538       0.02309862      -0.17865519
Pd       3.03805384       5.35921035      22.54452923        7       0.01582293      -0.01349406      -0.15823015
Pd       3.95073846      10.12654318      22.96861743        7      -0.02708549       0.02309860      -0.17865501
Pd       4.86342307       7.49964550      22.54452923        7       0.01582315      -0.01349392      -0.15823010
Pd      -4.27318267       4.20002327      23.36547171        6      -0.00303994       0.00259234      -0.00616516
Pd      -5.17533742       6.81794107      23.80065997        6      -0.00326704       0.00278614       0.00836774
Pd      -2.44781341       6.34045846      23.36547168        6      -0.00303983       0.00259242      -0.00616509
Pd      -3.34996818       8.95837624      23.80065996        6      -0.00326697       0.00278608       0.00836779
Pd      -0.62244417       8.48089359      23.36547172        6      -0.00303987       0.00259239      -0.00616516
Pd      -1.52459897      11.09881136      23.80066002        6      -0.00326699       0.00278610       0.00836775
Pd       1.20292505      10.62132870      23.36547171        6      -0.00303982       0.00259241      -0.00616515
Pd       0.30077027      13.23924649      23.80065998        6      -0.00326706       0.00278620       0.00836778
Pd      -7.91959995       7.30969838      24.19359782        5      -0.01391202       0.01186424       0.01438955
Pd      -8.83561182       9.93943358      24.61719314        5       0.01282689      -0.01093876      -0.00735015
Pd      -6.09423072       9.45013355      24.19359783        5      -0.01391200       0.01186425       0.01438950
Pd      -7.01024262      12.07986874      24.61719316        5       0.01282702      -0.01093886      -0.00735014
Pd      -4.26886145      11.59056870      24.19359784        5      -0.01391217       0.01186421       0.01438950
Pd      -5.18487336      14.22030389      24.61719315        5       0.01282688      -0.01093872      -0.00735017
Pd      -2.44349224      13.73100380      24.19359789        5      -0.01391203       0.01186437       0.01438943
Pd      -3.35950415      16.36073901      24.61719317        5       0.01282703      -0.01093892      -0.00735022
Pd      -1.52708459       1.85814297      25.01284399        4       0.00890960      -0.00759816       0.00125918
Pd      -2.45276059       4.49611975      25.40878898        4      -0.00581780       0.00496146      -0.01327062
Pd       0.29828465       3.99857816      25.01284397        4       0.00890958      -0.00759814       0.00125926
Pd      -0.62739139       6.63655495      25.40878910        4      -0.00581774       0.00496141      -0.01327083
Pd       2.12365385       6.13901331      25.01284401        4       0.00890967      -0.00759820       0.00125913
Pd       1.19797787       8.77699007      25.40878912        4      -0.00581775       0.00496147      -0.01327064
Pd       3.94902306       8.27944846      25.01284405        4       0.00890966      -0.00759819       0.00125922
Pd       3.02334708      10.91742521      25.40878915        4      -0.00581782       0.00496141      -0.01327081
Pd      -6.12594863       7.62862505      26.30981953        3       0.02518250      -0.02147573      -0.00634921
Pd      -5.23670794       5.02172039      25.93292724        3       0.00862529      -0.00735576      -0.01585195
Pd      -4.30057942       9.76906021      26.30981953        3       0.02518250      -0.02147578      -0.00634909
Pd      -3.41133870       7.16215557      25.93292711        3       0.00862537      -0.00735572      -0.01585185
Pd      -2.47521018      11.90949532      26.30981970        3       0.02518248      -0.02147576      -0.00634910
Pd      -1.58596949       9.30259070      25.93292725        3       0.00862535      -0.00735574      -0.01585186
Pd      -0.64984094      14.04993047      26.30981958        3       0.02518256      -0.02147571      -0.00634914
Pd       0.23939978      11.44302585      25.93292719        3       0.00862532      -0.00735581      -0.01585182
Pd       0.30729165       2.14233924      27.11925352        2       0.00334107      -0.00284926       0.00475154
Pd      -8.83974487       8.09440057      26.70738268        2       0.01401524      -0.01195220       0.00335513
Pd       2.13266086       4.28277444      27.11925360        2       0.00334095      -0.00284935       0.00475142
Pd      -7.01437569      10.23483577      26.70738274        2       0.01401521      -0.01195220       0.00335515
Pd       3.95803007       6.42320958      27.11925350        2       0.00334112      -0.00284920       0.00475162
Pd      -5.18900645      12.37527095      26.70738267        2       0.01401520      -0.01195232       0.00335516
Pd       5.78339933       8.56364471      27.11925356        2       0.00334105      -0.00284932       0.00475153
Pd      -3.36363719      14.51570606      26.70738280        2       0.01401515      -0.01195212       0.00335504
Pd      -2.39524077       2.59850904      27.51103496        1       0.00367201      -0.00313157      -0.02990655
Pd      -3.27661247       5.19870301      27.85931483        1      -0.01757616       0.01498898       0.00464951
Pd      -0.56987157       4.73894421      27.51103490        1       0.00367203      -0.00313148      -0.02990647
Pd      -1.45124329       7.33913816      27.85931508        1      -0.01757616       0.01498897       0.00464950
Pd       1.25549767       6.87937936      27.51103503        1       0.00367192      -0.00313148      -0.02990651
Pd       0.37412595       9.47957332      27.85931503        1      -0.01757616       0.01498895       0.00464945
Pd       3.08086691       9.01981449      27.51103518        1       0.00367201      -0.00313151      -0.02990664
Pd       2.19949518      11.62000842      27.85931513        1      -0.01757605       0.01498912       0.00464935
