37
Lattice="7.708127040155146 0.0 0.0 3.854063520077573 6.675433832372109 0.0 0.0 0.0 22.29365937364323" Properties=species:S:1:pos:R:3:tags:I:1:forces:R:3:charge:R:1 energy=-4604.189426226426 free_energy=-4604.189426226426 stress="-0.013080944839778395 7.802583280167887e-07 4.3035041223666376e-07 7.802583280167887e-07 -0.013080573431384666 -1.1738477259892756e-07 4.3035041223666376e-07 -1.1738477259892756e-07 -0.017294048118109046" dipole="0.6601613400671154 0.38111817699509065 0.5213441836814269" pbc="T T F"
Cu       0.00000000       0.00000000       8.00000000        4       0.07574296       0.04371867      -0.29356264       0.01066485
Cu       2.56937568       0.00000000       8.00000000        4      -0.07569123       0.04370409      -0.29360665       0.01063481
Cu       5.13875136       0.00000000       8.00000000        4      -0.00005532       0.02776560      -0.28363925       0.01822303
Cu       1.28468784       2.22514461       8.00000000        4       0.00001587      -0.08745086      -0.29356417       0.01065002
Cu       3.85406352       2.22514461       8.00000000        4       0.02456697       0.01418531      -0.30533766      -0.01192073
Cu       6.42343920       2.22514461       8.00000000        4      -0.02458762       0.01419108      -0.30532852      -0.01190634
Cu       2.56937568       4.45028922       8.00000000        4       0.02406449      -0.01390115      -0.28362157       0.01822052
Cu       5.13875136       4.45028922       8.00000000        4      -0.00000129      -0.02836990      -0.30533952      -0.01190548
Cu       7.70812704       4.45028922       8.00000000        4      -0.02406754      -0.01383544      -0.28363096       0.01824662
Cu       1.28468784       0.74171487      10.09788646        3       0.00007993       0.00001747      -0.05424914      -0.05098297
Cu       3.85406352       0.74171487      10.09788646        3       0.00557291      -0.04027989      -0.07760006      -0.00457699
Cu       6.42343920       0.74171487      10.09788646        3      -0.00567409      -0.04025401      -0.07761023      -0.00456007
Cu       2.56937568       2.96685948      10.09788646        3      -0.03207944       0.02498845      -0.07757762      -0.00457453
Cu       5.13875136       2.96685948      10.09788646        3      -0.00003956      -0.00005492      -0.15425593       0.03040211
Cu       7.70812704       2.96685948      10.09788646        3       0.03214844       0.02497397      -0.07770493      -0.00454898
Cu       3.85406352       5.19200409      10.09788646        3      -0.03772089       0.01523279      -0.07759635      -0.00455840
Cu       6.42343920       5.19200409      10.09788646        3       0.03770556       0.01534422      -0.07766476      -0.00455712
Cu       8.99281488       5.19200409      10.09788646        3      -0.00001424       0.00000624      -0.04803936      -0.01969881
Cu      -0.00001456       1.48341895      12.22216237        2       0.01664803      -0.00943156       0.02037689      -0.00726425
Cu       2.56938632       1.48343972      12.22228812        2      -0.01672310      -0.00960248       0.02006370      -0.00727836
Cu       5.13868200       1.48341490      12.22229490        2       0.00025380       0.03033835      -0.09917100      -0.08968239
Cu       1.28472730       3.70860469      12.22229670        2      -0.00021278      -0.04299062       0.06760328      -0.00661854
Cu       3.85404919       3.70853617      12.22226661        2       0.02633704      -0.01494689      -0.09904652      -0.08967626
Cu       6.42343137       3.70855859      12.22219237        2      -0.02605098      -0.01508116      -0.09897774      -0.08968156
Cu       2.56933175       5.93372331      12.22226822        2       0.03725916       0.02149651       0.06773038      -0.00660061
Cu       5.13873976       5.93371007      12.22221793        2       0.00006169       0.01909736       0.02021426      -0.00726241
Cu       7.70811165       5.93376676      12.22227910        2      -0.03725722       0.02118209       0.06771862      -0.00662307
Cu       0.00003176       0.00005032      14.34901118        1       0.01354714       0.00759152       0.39487027      -0.06387908
Cu       2.56930125       0.00001804      14.34916312        1      -0.01317460       0.00793436       0.39465888      -0.06393501
Cu       5.13864853       0.00002580      14.34922433        1       0.00036275      -0.12042097       0.27213066      -0.02727309
Cu       1.28470809       2.22517124      14.34907163        1       0.00012973      -0.01552922       0.39478366      -0.06393526
Cu       3.85409307       2.22518508      14.34928516        1      -0.34617674      -0.19992102       0.47523584       0.36323155
Cu       6.42349021       2.22507450      14.34904494        1       0.34590903      -0.19951227       0.47566397       0.36320550
Cu       2.56959011       4.45037276      14.34913478        1      -0.10477777       0.05997682       0.27228351      -0.02726296
Cu       5.13896751       4.45026038      14.34907842        1      -0.00066469       0.39941870       0.47572912       0.36317148
Cu       7.70816084       4.45028686      14.34912297        1       0.10447312       0.06017694       0.27226408      -0.02723762
O        5.13889255       2.96682110      15.37685178        0       0.00009049       0.00024181      -0.02420252      -0.48864959
