37
Lattice="7.708127040155146 0.0 0.0 3.854063520077573 6.675433832372109 0.0 0.0 0.0 22.29365937364323" Properties=species:S:1:pos:R:3:tags:I:1:forces:R:3:charge:R:1 energy=-4603.94841744987 free_energy=-4603.94841744987 stress="-0.012679762585487074 0.0008567819743457807 -5.786079783755985e-05 0.0008567819743457807 -0.013668308454373017 -3.347686030142902e-05 -5.786079783755985e-05 -3.347686030142902e-05 -0.016751142883670793" dipole="0.6840879344058415 0.3950056029843567 0.33720982342389594" pbc="T T F"
Cu       0.00000000       0.00000000       8.00000000        4       0.03804105       0.02193038      -0.28529557       0.00660513
Cu       2.56937568       0.00000000       8.00000000        4      -0.05302033       0.03798943      -0.28796494       0.01600973
Cu       5.13875136       0.00000000       8.00000000        4       0.01290372      -0.00680960      -0.27929005       0.02032980
Cu       1.28468784       2.22514461       8.00000000        4       0.00636900      -0.06494541      -0.28792909       0.01602122
Cu       3.85406352       2.22514461       8.00000000        4       0.01572868       0.00906483      -0.29167202       0.00428169
Cu       6.42343920       2.22514461       8.00000000        4      -0.02404527       0.06344404      -0.30245886      -0.01461064
Cu       2.56937568       4.45028922       8.00000000        4       0.00060789       0.01463058      -0.27927597       0.02032825
Cu       5.13875136       4.45028922       8.00000000        4       0.04288883      -0.05252690      -0.30246908      -0.01461073
Cu       7.70812704       4.45028922       8.00000000        4      -0.04512438      -0.02602613      -0.30084539       0.00516362
Cu       1.28468784       0.74171487      10.09788646        3      -0.00449673      -0.00263675      -0.07078116      -0.04626593
Cu       3.85406352       0.74171487      10.09788646        3      -0.01650922      -0.03607501      -0.09936363      -0.02631275
Cu       6.42343920       0.74171487      10.09788646        3       0.02033895      -0.05324121      -0.07089903       0.00290682
Cu       2.56937568       2.96685948      10.09788646        3      -0.03948159       0.00375695      -0.09932328      -0.02631172
Cu       5.13875136       2.96685948      10.09788646        3       0.04114806       0.02372375      -0.14910800       0.03083337
Cu       7.70812704       2.96685948      10.09788646        3       0.00014267       0.03170321      -0.05895307       0.00407381
Cu       3.85406352       5.19200409      10.09788646        3      -0.03594996       0.04426610      -0.07088476       0.00291256
Cu       6.42343920       5.19200409      10.09788646        3       0.02751498      -0.01574037      -0.05889276       0.00406601
Cu       8.99281488       5.19200409      10.09788646        3       0.02385547       0.01379441      -0.05799686      -0.01950564
Cu      -0.00001456       1.48341895      12.22216237        2      -0.01408037      -0.06919835       0.02325738      -0.03402794
Cu       2.56938632       1.48343972      12.22228812        2       0.01083406       0.00630123       0.06538470       0.04504808
Cu       5.13868200       1.48341490      12.22229490        2       0.01806416       0.01102698      -0.04145770      -0.07498078
Cu       1.28472730       3.70860469      12.22229670        2       0.01262967      -0.00266308       0.06453566      -0.01054951
Cu       3.85404919       3.70853617      12.22226661        2       0.01853567       0.01014458      -0.04135489      -0.07497828
Cu       6.42343137       3.70855859      12.22219237        2      -0.06893561      -0.03983899      -0.09634859      -0.09515564
Cu       2.56933175       5.93372331      12.22226822        2       0.01764643       0.01017106      -0.00380629      -0.00505740
Cu       5.13873976       5.93371007      12.22221793        2      -0.06709664       0.02237187       0.02312802      -0.03403031
Cu       7.70811165       5.93376676      12.22227910        2       0.00411031       0.01215750       0.06464173      -0.01054952
Cu       0.00003176       0.00005032      14.34901118        1      -0.01327894      -0.00798146       0.40266772      -0.11395309
Cu       2.56930125       0.00001804      14.34916312        1       0.00668919       0.08073058       0.31319393      -0.01027598
Cu       5.13864853       0.00002580      14.34922433        1       0.01523230      -0.08574881       0.29633870      -0.01518243
Cu       1.28470809       2.22517124      14.34907163        1       0.07316853      -0.03470874       0.31329998      -0.01025166
Cu       3.85409307       2.22518508      14.34928516        1       0.01329639       0.00762322       0.39955778       0.00747469
Cu       6.42349021       2.22507450      14.34904494        1       0.32282432      -0.43658611       0.57102753       0.47708338
Cu       2.56959011       4.45037276      14.34913478        1      -0.06731671       0.05550856       0.29649418      -0.01517114
Cu       5.13896751       4.45026038      14.34907842        1      -0.21756119       0.49833164       0.57088028       0.47710386
Cu       7.70816084       4.45028686      14.34912297        1      -0.03767974      -0.02191222       0.40597772      -0.00007419
O        5.77692909       3.33518458      15.51737389        0      -0.03799361      -0.02203173      -0.27401436      -0.48838673
