29
Lattice="8.493 0.0 0.0 4.2465 6.005457892617349 0.0 0.0 0.0 20.003638595078232" Properties=species:S:1:pos:R:3:tags:I:1:forces:R:3:charge:R:1 charge=0 spin=0 energy=-2357.663241916551 free_energy=-2357.663241916551 stress="0.022254453335928095 -0.0010922283901164094 0.0014682144024485734 -0.0010922283901164094 0.006263455551628755 -0.0009547672002939544 0.0014682144024485734 -0.0009547672002939544 -0.006768771708037155" dipole="-0.14658574782887557 0.22390106989777495 0.8196287013725094" pbc="T T T"
Fe       0.00000000       0.00000000       8.00000000        3       0.08751862      -0.07742561      -0.13501307      -0.00294006
Fe       2.83100000       0.00000000       8.00000000        3      -0.13680446       0.00062100      -0.09503557      -0.00400659
Fe       5.66200000       0.00000000       8.00000000        3       0.05478649      -0.01108744      -0.07302040      -0.00343223
Fe       1.41550000       2.00181930       8.00000000        3       0.02388305      -0.06916408      -0.12953053      -0.00366780
Fe       4.24650000       2.00181930       8.00000000        3      -0.09197305      -0.00934292      -0.01968737      -0.00428736
Fe       7.07750000       2.00181930       8.00000000        3      -0.03625790      -0.01701903      -0.02191946      -0.00413337
Fe       2.83100000       4.00363860       8.00000000        3       0.05919077      -0.05878152      -0.08443419      -0.00315446
Fe       5.66200000       4.00363860       8.00000000        3      -0.03673162      -0.00415612      -0.07345141      -0.00440123
Fe       8.49300000       4.00363860       8.00000000        3       0.05796278       0.02097235      -0.09050509      -0.00427947
Fe       0.00000000       2.00181930      10.00181930        2      -0.11461553       0.42412439      -0.04419011       0.00220118
Fe       2.83100000       2.00181930      10.00181930        2      -0.20247761      -0.26401164      -0.06388933      -0.00099838
Fe       5.66200000       2.00181930      10.00181930        2       0.32663510      -0.17216138      -1.19496364       0.00965626
Fe       1.41550000       4.00363860      10.00181930        2       0.14092704       0.42106249      -0.38988488       0.00423689
Fe       4.24650000       4.00363860      10.00181930        2       0.02735053      -0.24433277      -0.05291259      -0.00083844
Fe       7.07750000       4.00363860      10.00181930        2       0.00865548      -0.12482182      -0.55622866       0.00520223
Fe       2.83100000       6.00545789      10.00181930        2      -0.10701489       0.55418378      -0.32483585       0.00173425
Fe       5.66200000       6.00545789      10.00181930        2      -0.05789441      -0.25179781       0.35568721       0.00006672
Fe       8.49300000       6.00545789      10.00181930        2       0.49121821      -0.34012528      -1.08583833       0.00432289
Fe      -0.39294215      -0.64081239      11.89914594        1      -0.03108047       0.09572643       0.31641365      -0.00615588
Fe       3.15129007       0.29900728      11.82621820        1      -0.76997722       0.09510180       0.59154706       0.00353132
Fe       5.67580923      -0.51311943      11.82642584        1       0.14559133      -0.23494175       0.17812617       0.00712572
Fe       1.05372265       1.35349095      11.91274636        1      -0.03211907       0.06018011       0.15013609      -0.00575928
Fe       4.55718257       2.19495814      11.91059787        1       0.81969126       0.10310289       2.47650687       0.01984897
Fe       7.10981515       1.49918791      11.89013415        1      -0.42654192       0.32890583       0.54305923       0.04087758
Fe       2.47355433       3.34496955      11.89808500        1      -0.03525679       0.13650593       0.32246075      -0.02422671
Fe       5.98591592       4.41079687      11.91895696        1       0.09585443      -0.31102311       0.99633384       0.03810631
Fe       8.55500895       3.53463000      11.82006576        1       0.19384492      -0.08895513       0.24411029       0.01163194
O        5.65934264       2.66991658      13.15065125        0      -0.00953537       0.00213428      -0.00076279      -0.37981677
H        4.32473863       3.20871773      13.03526407        0      -0.00632038       0.02336233      -0.01982422       0.30355575
