2
Lattice="20.698000449549408 0.0 0.0 0.0 20.0 0.0 0.0 0.0 20.0" Properties=species:S:1:pos:R:3:forces:R:3 charge=0 spin=1 energy=-31.588172821813842 stress="-2.7407315428717993e-05 -2.5185108656795506e-19 1.6790077176919264e-19 -2.5185108656795506e-19 0.0 0.0 1.6790077176919264e-19 0.0 0.0" free_energy=-31.588172821813842 pbc="T T T"
H       10.71561868      10.00000000      10.00000000       0.30946407       0.00000000      -0.00000000
H        9.98238177      10.00000000      10.00000000      -0.30946407      -0.00000000       0.00000000
