29
Lattice="8.493 0.0 0.0 4.2465 6.005457892617349 0.0 0.0 0.0 20.003638595078232" Properties=species:S:1:pos:R:3:tags:I:1:forces:R:3:charge:R:1 charge=0 spin=0 energy=-2368.7812911779915 free_energy=-2368.7812911779915 stress="0.015057672430060681 0.00015410845372337796 -0.0029394975101619163 0.00015410845372337796 -0.0028588236947627195 0.003683431346825463 -0.0029394975101619163 0.003683431346825463 -0.014585907785984478" dipole="0.5620692658648053 0.6268925558852209 0.763195919895774" pbc="T T T"
Fe       0.00000000       0.00000000       8.00000000        3       0.09387946      -0.05020678       0.01268205      -0.00035965
Fe       2.83100000       0.00000000       8.00000000        3       0.00791631      -0.03664350       0.05765577      -0.00085657
Fe       5.66200000       0.00000000       8.00000000        3       0.10903586       0.03329327      -0.17092670      -0.00032590
Fe       1.41550000       2.00181930       8.00000000        3      -0.11169019      -0.00485103       0.01154107      -0.00056524
Fe       4.24650000       2.00181930       8.00000000        3       0.04225222      -0.05320259      -0.06082425      -0.00129145
Fe       7.07750000       2.00181930       8.00000000        3       0.07224990      -0.01651041       0.04049348      -0.00026586
Fe       2.83100000       4.00363860       8.00000000        3       0.06396261      -0.00373661       0.05788883      -0.00038362
Fe       5.66200000       4.00363860       8.00000000        3      -0.13865104      -0.06701415      -0.05733187      -0.00076374
Fe       8.49300000       4.00363860       8.00000000        3       0.02240866       0.05533020      -0.06051417      -0.00055958
Fe       0.00000000       2.00181930      10.00181930        2      -0.17509957       0.04650983       0.38171451      -0.00284304
Fe       2.83100000       2.00181930      10.00181930        2       0.50296807       0.04676400      -0.78609770       0.00234378
Fe       5.66200000       2.00181930      10.00181930        2      -0.06296848       0.10440611      -0.42327741       0.00264284
Fe       1.41550000       4.00363860      10.00181930        2      -0.41492432      -0.06777857      -0.61064530       0.00139487
Fe       4.24650000       4.00363860      10.00181930        2       0.20540981       0.06591707       0.33723396       0.00032642
Fe       7.07750000       4.00363860      10.00181930        2       0.16113671       0.14413298      -0.57251592       0.00411593
Fe       2.83100000       6.00545789      10.00181930        2      -0.57176951       0.03174428       0.32046834      -0.00053871
Fe       5.66200000       6.00545789      10.00181930        2       0.52926354      -0.06551713      -0.56440160       0.00591555
Fe       8.49300000       6.00545789      10.00181930        2       0.33137155       0.16136722      -1.57171446       0.00383738
Fe      -0.00001286      -0.00009696      11.75033812        1      -0.02821086       0.03478886       0.34816924       0.04806687
Fe       3.07159637       0.03099151      11.91004278        1       0.47904044       0.49236624       2.60017183       0.08070973
Fe       5.42143221      -0.03111893      11.91005365        1       0.34245614      -0.10657794       0.34683613       0.01645687
Fe       1.65226266       1.83399823      11.85374402        1      -0.66771362       0.08386622       1.63942650       0.04858839
Fe       4.20554567       2.38623638      11.86516243        1      -0.14545715       0.31928143      -0.33330337       0.04082670
Fe       6.79319282       1.77884592      11.98628905        1       0.05701003       0.23176674       0.34908582       0.04899004
Fe       2.59420062       4.17122996      11.85375328        1       0.03159025       0.17122257       0.45302678       0.01412183
Fe       5.94626350       4.22678979      11.98607328        1      -4.42161530       1.71000783      -7.76851798       0.09440490
Fe       8.53396109       3.61914660      11.86517145        1       0.04691436      -0.67195482      -0.11563257       0.04422613
O        6.39151834       3.86698930      13.25195732        0      -0.01177764       0.01880497      -0.02529429      -0.19714234
O        2.12942318       0.12267382      13.20472739        0       0.00980352      -0.00884655       0.00454277      -0.25107252
