29
Lattice="8.493 0.0 0.0 4.2465 6.005457892617349 0.0 0.0 0.0 20.003638595078232" Properties=species:S:1:pos:R:3:tags:I:1:forces:R:3:charge:R:1 charge=0 spin=0 energy=-2465.9246756939833 free_energy=-2465.9246756939833 stress="0.023890834613190314 0.002141764373115315 -0.0027867639009010073 0.002141764373115315 -0.009569291473017112 -0.0010392320092721713 -0.0027867639009010073 -0.0010392320092721713 -0.0030579480981461635" dipole="0.024338947881108727 -0.9300097807996411 1.268340832327545" pbc="T T T"
Fe       0.00000000       0.00000000       8.00000000        3       0.06053036       0.07653329      -0.00392293      -0.00218416
Fe       2.83100000       0.00000000       8.00000000        3       0.04932651       0.04947522      -0.06650012      -0.00236881
Fe       5.66200000       0.00000000       8.00000000        3       0.00956175       0.10878290      -0.02966318      -0.00259934
Fe       1.41550000       2.00181930       8.00000000        3      -0.02728022       0.04506514      -0.07302600      -0.00210119
Fe       4.24650000       2.00181930       8.00000000        3      -0.02722242       0.08050318      -0.08165799      -0.00239186
Fe       7.07750000       2.00181930       8.00000000        3      -0.00888349       0.02004252       0.04074726      -0.00204738
Fe       2.83100000       4.00363860       8.00000000        3       0.00956773       0.16739542      -0.13951989      -0.00289269
Fe       5.66200000       4.00363860       8.00000000        3      -0.01352490      -0.04520056       0.09092296      -0.00374275
Fe       8.49300000       4.00363860       8.00000000        3      -0.00734175      -0.01622821       0.08670573      -0.00294522
Fe       0.00000000       2.00181930      10.00181930        2       0.00940757       0.14923574       0.06734903      -0.00183350
Fe       2.83100000       2.00181930      10.00181930        2       0.09614194      -0.05581935      -0.38156788       0.00061731
Fe       5.66200000       2.00181930      10.00181930        2      -0.06468827       0.18421164       0.03760505       0.00104716
Fe       1.41550000       4.00363860      10.00181930        2       0.24140356       0.02456292       0.20242570       0.00008478
Fe       4.24650000       4.00363860      10.00181930        2      -0.37561435       0.22666738      -0.27188926       0.00072332
Fe       7.07750000       4.00363860      10.00181930        2       0.05985921      -0.09833891      -0.23354728       0.01800359
Fe       2.83100000       6.00545789      10.00181930        2      -0.07154893       0.34022402      -0.04119814       0.00093184
Fe       5.66200000       6.00545789      10.00181930        2      -0.23836804      -0.56440853      -0.87526691       0.01138111
Fe       8.49300000       6.00545789      10.00181930        2      -0.04925830      -0.25323726      -0.17771919       0.00254726
Fe       0.16349241       0.61026660      11.84306957        1       0.22386593      -0.04044011       0.97808092       0.04876373
Fe       2.83400258       0.57092503      11.81790457        1      -0.25460712      -0.48134522       1.78627550       0.07227510
Fe       5.46694845       0.65556782      11.86044651        1       0.11466061       0.07693361      -0.06682173       0.01124208
Fe       1.56718638       2.59366754      11.85310585        1       0.11842762       0.48593860      -0.00345840       0.02459015
Fe       4.05467022       2.61797855      11.85723735        1      -0.12649395      -0.29599895      -0.22849487       0.01641321
Fe       7.09693754       2.43109276      11.86461279        1      -0.12173171       1.25281900       0.65913765       0.05111704
Fe       2.77975587       4.70353624      11.88412068        1      -0.27100609      -0.37234083      -0.24277001       0.01102154
Fe       5.54574431       4.57375622      11.92993881        1      -0.95075776      -4.07235574      -1.48414772       0.11261577
Fe       8.63785540       4.56522720      11.90807070        1      -1.01612194      -0.16668199       0.97115542       0.05939747
O        6.90707031       4.27646805      12.78784404        0       0.00064789       0.01341626      -0.00376666      -0.22454720
O        1.63086828      -0.23372054      12.81302963        0      -0.00120394      -0.00808807      -0.00305092      -0.19311835
