54
Lattice="11.71749558437972 0.0 0.0 5.85874779218986 10.147648844804822 0.0 0.0 0.0 19.986372950700737" Properties=species:S:1:pos:R:3:tags:I:1:forces:R:3 energy=-244983.9955432297 free_energy=-244983.9955432297 pbc="T T T"
Fe       1.95291593       1.12751654       8.00000000        6      -0.03868328      -0.02231795       1.06161441
Fe       5.85874779       1.12751654       8.00000000        6       0.00057541      -0.04077204       1.09265765
Fe       9.76457965       1.12751654       8.00000000        6       0.03791709      -0.02170397       1.06067776
Fe       3.90583186       4.51006615       8.00000000        6      -0.03484050       0.01987103       1.09258540
Fe       7.81166372       4.51006615       8.00000000        6       0.03559692       0.01999521       1.09238203
Fe      11.71749558       4.51006615       8.00000000        6      -0.00071657      -0.01923622       1.16100889
Fe       5.85874779       7.89261577       8.00000000        6       0.00028205       0.04481998       1.06180030
Fe       9.76457965       7.89261577       8.00000000        6      -0.01623832       0.00929531       1.16298529
Fe      13.67041152       7.89261577       8.00000000        6       0.01614833       0.01015252       1.16084536
Fe       0.00000000       2.25503308       8.79727459        5       0.00035456      -0.01372506       0.55208141
Fe       3.90583186       2.25503308       8.79727459        5       0.00925134       0.00513886       0.50073777
Fe       7.81166372       2.25503308       8.79727459        5      -0.01002319       0.00586391       0.50111880
Fe       1.95291593       5.63758269       8.79727459        5      -0.07195566       0.04158554       0.53661751
Fe       5.85874779       5.63758269       8.79727459        5       0.00041061      -0.01156328       0.50019269
Fe       9.76457965       5.63758269       8.79727459        5       0.07208936       0.04244994       0.53744206
Fe       3.90583186       9.02013231       8.79727459        5       0.01130128       0.00656685       0.55211535
Fe       7.81166372       9.02013231       8.79727459        5      -0.01136685       0.00702323       0.55297770
Fe      11.71749558       9.02013231       8.79727459        5      -0.00054970      -0.08406916       0.53792517
Fe       0.00000000       0.00000000       9.59454918        4       0.00017304      -0.00003445      -1.46519816
Fe       3.90583186       0.00000000       9.59454918        4      -0.00693401       0.00611100      -1.62561340
Fe       7.81166372       0.00000000       9.59454918        4       0.00662573       0.00650849      -1.62158988
Fe       1.95291593       3.38254961       9.59454918        4       0.00217104      -0.00945060      -1.62344056
Fe       5.85874779       3.38254961       9.59454918        4       0.00031162       0.00026148      -1.74700546
Fe       9.76457965       3.38254961       9.59454918        4      -0.00239704      -0.00883174      -1.62041720
Fe       3.90583186       6.76509923       9.59454918        4       0.00876772       0.00274877      -1.62363211
Fe       7.81166372       6.76509923       9.59454918        4      -0.00856846       0.00278168      -1.62401469
Fe      11.71749558       6.76509923       9.59454918        4       0.00082944      -0.00031033      -1.77052900
Fe       1.95142788       1.12674086      10.23420257        3       0.00444107       0.00231785      -0.00584437
Fe       5.85875834       1.13075068      10.23858993        3      -0.00021649       0.00242044      -0.00094128
Fe       9.76588539       1.12674061      10.23403583        3      -0.00396773       0.00247854      -0.00617322
Fe       3.90862524       4.50846904      10.23848425        3       0.00184065      -0.00111766      -0.00065872
Fe       7.80880140       4.50845304      10.23858300        3      -0.00190956      -0.00098370      -0.00105338
Fe      11.71747758       4.50198397      10.25039098        3       0.00015041       0.00203914      -0.00051114
Fe       5.85868032       7.89420968      10.23411348        3       0.00031727      -0.00481413      -0.00566928
Fe       9.75761486       7.89657475      10.25063282        3       0.00153006      -0.00100042      -0.00008870
Fe      13.67739087       7.89664882      10.25030570        3      -0.00165502      -0.00130072      -0.00019772
Fe      -0.00018530       2.23005216      11.44964714        2      -0.00016506      -0.00687410      -0.00110326
Fe       3.87877204       2.23933984      11.43962199        2      -0.00080424      -0.00005142       0.00477917
Fe       7.83918813       2.23918602      11.43976870        2       0.00033501      -0.00006942       0.00496094
Fe       1.98112430       5.62124152      11.44124207        2      -0.00382734       0.00224869       0.00177869
Fe       5.85878907       5.66914768      11.43950824        2      -0.00012007       0.00027022       0.00530830
Fe       9.73677142       5.62073694      11.44136391        2       0.00322108       0.00172984       0.00156169
Fe       3.92747543       9.03280576      11.44957580        2       0.00580709       0.00334063      -0.00072505
Fe       7.78982808       9.03262585      11.44953268        2      -0.00578087       0.00335658      -0.00032782
Fe      11.71824713       9.05253178      11.44136281        2       0.00017484      -0.00402712       0.00178152
Fe      -0.00003867       0.00007058      11.74980250        1       0.00026482      -0.00006376       0.00369210
Fe       3.88556423      -0.00494778      11.72612687        1      -0.00558109       0.00130946       0.00015941
Fe       7.83202890      -0.00477336      11.72683685        1       0.00568060       0.00157711       0.00090169
Fe       1.93868234       3.36730047      11.72644897        1      -0.00236721      -0.00535869       0.00005631
Fe       5.85879264       3.38238965      11.69346494        1       0.00015195       0.00028899       0.00316271
Fe       9.77883663       3.36723375      11.72696757        1       0.00188668      -0.00519543       0.00044763
Fe       3.91178307       6.78513378      11.72642251        1       0.00383094       0.00420890       0.00067440
Fe       7.80584836       6.78500322      11.72634743        1      -0.00376692       0.00416339       0.00033476
Fe      11.71725751       6.76532736      11.68595156        1      -0.00000257      -0.00005219      -0.00263050