27
Lattice="8.493 0.0 0.0 4.2465 6.005457892617349 0.0 0.0 0.0 20.003638595078232" Properties=species:S:1:pos:R:3:tags:I:1:forces:R:3 charge=0 spin=0 energy=-179.13274077550895 free_energy=-179.13274077550895 stress="0.046851497143507004 -4.2255876905983314e-05 7.910526400589646e-11 -4.2255876905983314e-05 0.03193148225545883 -1.0529813687654155e-09 7.910526400589646e-11 -1.0529813687654155e-09 0.009996387176215649" pbc="T T T"
Fe       0.00000000       0.00000000       8.00000000        3      -0.00000020       0.00000105       0.55499923
Fe       2.83100000       0.00000000       8.00000000        3       0.00000031       0.00000156       0.55499846
Fe       5.66200000       0.00000000       8.00000000        3       0.00000026       0.00000065       0.55500036
Fe       1.41550000       2.00181930       8.00000000        3      -0.00000002       0.00000033       0.55500013
Fe       4.24650000       2.00181930       8.00000000        3      -0.00000048      -0.00000017       0.55499882
Fe       7.07750000       2.00181930       8.00000000        3       0.00000005       0.00000033       0.55499858
Fe       2.83100000       4.00363860       8.00000000        3       0.00000016      -0.00000101       0.55500042
Fe       5.66200000       4.00363860       8.00000000        3       0.00000021      -0.00000038       0.55499828
Fe       8.49300000       4.00363860       8.00000000        3       0.00000033      -0.00000052       0.55499870
Fe       0.00000000       2.00181930      10.00181930        2      -0.00000160      -0.00000150      -0.54310089
Fe       2.83100000       2.00181930      10.00181930        2      -0.00000033       0.00000194      -0.54309928
Fe       5.66200000       2.00181930      10.00181930        2      -0.00000030      -0.00000240      -0.54310018
Fe       1.41550000       4.00363860      10.00181930        2      -0.00000222      -0.00000016      -0.54310328
Fe       4.24650000       4.00363860      10.00181930        2       0.00000475      -0.00000060      -0.54310322
Fe       7.07750000       4.00363860      10.00181930        2       0.00000097      -0.00000204      -0.54310137
Fe       2.83100000       6.00545789      10.00181930        2      -0.00000051      -0.00000139      -0.54310131
Fe       5.66200000       6.00545789      10.00181930        2      -0.00000095       0.00000071      -0.54310018
Fe       8.49300000       6.00545789      10.00181930        2      -0.00000070       0.00000035      -0.54310089
Fe      -0.00000012       0.00000020      11.86921836        1       0.00000018       0.00000017      -0.01189797
Fe       2.83100016       0.00000035      11.86921839        1       0.00000000       0.00000108      -0.01189691
Fe       5.66200003       0.00000008      11.86921869        1       0.00000041       0.00000021      -0.01190048
Fe       1.41549989       2.00181936      11.86921840        1      -0.00000049      -0.00000014      -0.01189929
Fe       4.24649998       2.00181935      11.86921844        1       0.00000163      -0.00000026      -0.01189861
Fe       7.07749989       2.00181941      11.86921848        1       0.00000027       0.00000107      -0.01189742
Fe       2.83100014       4.00363829      11.86921823        1      -0.00000011      -0.00000049      -0.01189556
Fe       5.66200001       4.00363868      11.86921845        1       0.00000004       0.00000093      -0.01189797
Fe       8.49299997       4.00363863      11.86921845        1      -0.00000151       0.00000071      -0.01189823
