4
Lattice="21.58863531489777 0.0 0.0 0.0 21.671900760433942 0.0 0.0 0.0 20.328078220468747" Properties=species:S:1:pos:R:3:forces:R:3 charge=0 spin=1 energy=-1538.795188187374 stress="2.9814198569511063e-05 -1.3198219676269218e-05 4.038868155475939e-06 -1.3198219676269218e-05 -1.134886588260997e-06 -1.8715718397288583e-07 4.038868155475939e-06 -1.8715718397288583e-07 -1.3193483027862385e-05" free_energy=-1538.795188187374 pbc="T T T"
N       10.60293417      10.77432880      10.32749417      -0.12497070       0.00799675       0.38752934
H       11.55126159      10.65809321       9.99806598      -0.16129850       0.08251889      -0.15862256
H       10.02167977      10.01459742      10.00733749       0.08736982      -0.06083860      -0.11201674
H       10.20167506      11.64489322      10.00784956       0.19889939      -0.02967704      -0.11689003
