36
Lattice="7.708127040155146 0.0 0.0 3.854063520077573 6.675433832372109 0.0 0.0 0.0 22.29365937364323" Properties=species:S:1:pos:R:3:tags:I:1:forces:R:3 energy=-240633.5664637463 free_energy=-240633.5664637463 pbc="T T F"
Cu       0.00000000       0.00000000       8.00000000        4      -0.00002185      -0.00001903      -0.05952001
Cu       2.56937568       0.00000000       8.00000000        4      -0.00007302      -0.00006839      -0.05967556
Cu       5.13875136       0.00000000       8.00000000        4      -0.00011878       0.00000026      -0.05965525
Cu       1.28468784       2.22514461       8.00000000        4      -0.00005271       0.00000077      -0.05955163
Cu       3.85406352       2.22514461       8.00000000        4       0.00006839      -0.00003985      -0.05947990
Cu       6.42343920       2.22514461       8.00000000        4      -0.00006068       0.00001954      -0.05962774
Cu       2.56937568       4.45028922       8.00000000        4       0.00000797       0.00003008      -0.05953132
Cu       5.13875136       4.45028922       8.00000000        4       0.00009025      -0.00001800      -0.05965216
Cu       7.70812704       4.45028922       8.00000000        4      -0.00009385       0.00000977      -0.05986222
Cu       1.28468784       0.74171487      10.09788646        3       0.00000591       0.00001800       0.06506691
Cu       3.85406352       0.74171487      10.09788646        3      -0.00010207       0.00005271       0.06509390
Cu       6.42343920       0.74171487      10.09788646        3      -0.00018640      -0.00002803       0.06513504
Cu       2.56937568       2.96685948      10.09788646        3      -0.00009539       0.00002957       0.06516975
Cu       5.13875136       2.96685948      10.09788646        3      -0.00010979      -0.00007868       0.06507488
Cu       7.70812704       2.96685948      10.09788646        3       0.00004371      -0.00000489       0.06513581
Cu       3.85406352       5.19200409      10.09788646        3      -0.00015864      -0.00011827       0.06513916
Cu       6.42343920       5.19200409      10.09788646        3      -0.00000154       0.00001414       0.06510316
Cu       8.99281488       5.19200409      10.09788646        3      -0.00004885      -0.00005348       0.06528262
Cu      -0.00001456       1.48341895      12.22216237        2       0.00004834       0.00020260      -0.00327944
Cu       2.56938632       1.48343972      12.22228812        2      -0.00033193      -0.00004011      -0.00363168
Cu       5.13868200       1.48341490      12.22229490        2       0.00044120       0.00014475      -0.00364042
Cu       1.28472730       3.70860469      12.22229670        2      -0.00040315      -0.00012701      -0.00373298
Cu       3.85404919       3.70853617      12.22226661        2       0.00021829       0.00031625      -0.00358258
Cu       6.42343137       3.70855859      12.22219237        2       0.00022703       0.00003291      -0.00332752
Cu       2.56933175       5.93372331      12.22226822        2       0.00017124       0.00002545      -0.00363477
Cu       5.13873976       5.93371007      12.22221793        2       0.00001800      -0.00007405      -0.00349927
Cu       7.70811165       5.93376676      12.22227910        2      -0.00015118      -0.00052939      -0.00354272
Cu       0.00003176       0.00005032      14.34901118        1       0.00001800      -0.00011184      -0.00162339
Cu       2.56930125       0.00001804      14.34916312        1       0.00010439       0.00007868      -0.00206074
Cu       5.13864853       0.00002580      14.34922433        1       0.00011853      -0.00009436      -0.00222709
Cu       1.28470809       2.22517124      14.34907163        1       0.00011416       0.00027948      -0.00180929
Cu       3.85409307       2.22518508      14.34928516        1       0.00006222       0.00001748      -0.00235950
Cu       6.42349021       2.22507450      14.34904494        1       0.00003754       0.00004088      -0.00182137
Cu       2.56959011       4.45037276      14.34913478        1      -0.00014604       0.00007199      -0.00191984
Cu       5.13896751       4.45026038      14.34907842        1      -0.00003702       0.00005836      -0.00188848
Cu       7.70816084       4.45028686      14.34912297        1       0.00039826      -0.00003831      -0.00206408
