42
Lattice="7.708127040155146 0.0 0.0 3.854063520077573 6.675433832372109 0.0 0.0 0.0 22.29365937364323" Properties=species:S:1:pos:R:3:initial_charges:R:1:tags:I:1:forces:R:3 energy=-4703.5110000826635 free_energy=-4703.5110000826635 stress="-0.012379298361594808 -4.998060718302911e-05 5.166801630501684e-05 -4.998060718302911e-05 -0.014777783335131855 1.760636545157689e-06 5.166801630501684e-05 1.760636545157689e-06 -0.01519612541362662" dipole="-0.20299526925294573 -0.8286325377655713 1.6963038367444636" pbc="T T F"
Cu       0.00000000       0.00000000       8.00000000      -0.01004396        4      -0.05157540       0.02429174      -0.27799015
Cu       2.56937568       0.00000000       8.00000000       0.01343029        4      -0.00407706       0.03752237      -0.26970903
Cu       5.13875136       0.00000000       8.00000000      -0.00663816        4       0.05634476       0.02113613      -0.28047037
Cu       1.28468784       2.22514461       8.00000000      -0.01529697        4       0.04076868       0.03685251      -0.33973951
Cu       3.85406352       2.22514461       8.00000000      -0.01644389        4      -0.03841479       0.04540690      -0.34377839
Cu       6.42343920       2.22514461       8.00000000      -0.01266425        4      -0.00160955       0.03717546      -0.32286989
Cu       2.56937568       4.45028922       8.00000000      -0.01210042        4       0.00219259      -0.06677413      -0.32975222
Cu       5.13875136       4.45028922       8.00000000      -0.00097755        4       0.02967672      -0.08392102      -0.32026488
Cu       7.70812704       4.45028922       8.00000000      -0.00256586        4      -0.03102583      -0.07991083      -0.32595787
Cu       1.28468784       0.74171487      10.09788646       0.00934572        3       0.02873770       0.04203447      -0.05539200
Cu       3.85406352       0.74171487      10.09788646       0.00781078        3      -0.02744706       0.03799136      -0.03557769
Cu       6.42343920       0.74171487      10.09788646       0.04262746        3      -0.00310326      -0.08357394      -0.11619772
Cu       2.56937568       2.96685948      10.09788646      -0.00431319        3      -0.00168685       0.02381383       0.03059856
Cu       5.13875136       2.96685948      10.09788646      -0.00553589        3      -0.05268827       0.04775655      -0.04337784
Cu       7.70812704       2.96685948      10.09788646      -0.00425152        3       0.05207537       0.05747464      -0.03857486
Cu       3.85406352       5.19200409      10.09788646       0.00195697        3      -0.07292961      -0.01293035      -0.03578420
Cu       6.42343920       5.19200409      10.09788646      -0.01282569        3       0.00916234      -0.02151519      -0.03702675
Cu       8.99281488       5.19200409      10.09788646      -0.00345293        3       0.06118444      -0.01461248      -0.02758246
Cu      -0.00001456       1.48341895      12.22216237      -0.02879982        2       0.06755596      -0.01139525       0.08788517
Cu       2.56938632       1.48343972      12.22228812       0.00671053        2      -0.00156338      -0.01316086       0.05111490
Cu       5.13868200       1.48341490      12.22229490      -0.02596992        2      -0.05711034       0.00241864       0.10639749
Cu       1.28472730       3.70860469      12.22229670       0.00803021        2       0.00903224      -0.01964866       0.04527586
Cu       3.85404919       3.70853617      12.22226661       0.00415204        2      -0.00652231      -0.02266560       0.05250442
Cu       6.42343137       3.70855859      12.22219237       0.03077906        2      -0.00213662       0.06883533       0.06224937
Cu       2.56933175       5.93372331      12.22226822      -0.02893877        2       0.00325268      -0.03859960       0.13175776
Cu       5.13873976       5.93371007      12.22221793      -0.00288701        2       0.04403760      -0.01287936       0.11306917
Cu       7.70811165       5.93376676      12.22227910      -0.00027026        2      -0.04661401      -0.02138492       0.11012680
Cu       0.00003176       0.00005032      14.34901118       0.14530662        1       0.13528675      -0.20470426       0.25549378
Cu       2.56930125       0.00001804      14.34916312      -0.06884467        1      -0.00896887       0.04526444       0.30903769
Cu       5.13864853       0.00002580      14.34922433       0.10971235        1      -0.11922883      -0.15441759       0.34370883
Cu       1.28470809       2.22517124      14.34907163      -0.06365178        1       0.24957092       0.14759865       0.24570285
Cu       3.85409307       2.22518508      14.34928516      -0.05533406        1      -0.23361712       0.13567306       0.26794314
Cu       6.42349021       2.22507450      14.34904494       0.04254517        1      -0.00873008       0.41352473       0.20126083
Cu       2.56959011       4.45037276      14.34913478      -0.02098998        1      -0.00871293      -0.29539873       0.19146482
Cu       5.13896751       4.45026038      14.34907842      -0.07927580        1      -0.00962524      -0.05480493       0.32171575
Cu       7.70816084       4.45028686      14.34912297      -0.07234578        1       0.01919304      -0.00973005       0.32179520
O        6.49850204       0.30639836      16.09044064      -0.46418076        0       0.00144209      -0.00265820      -0.00924755
C        6.57604943       1.58716072      16.78508353       0.07880648        0      -0.00648586      -0.01556964      -0.00480864
H        5.65929039       2.16847197      16.80804619       0.07538216        0      -0.00415476       0.00087648      -0.01710509
H        7.54214255       2.08288556      16.74938019       0.07396220        0      -0.00940879       0.00832151      -0.00369543
H        6.55205677       0.44331658      17.23276081       0.36804083        0      -0.00207705       0.00628679      -0.01419983
H       10.22761485       5.88377812      15.12478296       0.05120067        0       0.00001762      -0.00020242       0.03666528
