42
Lattice="7.708127040155146 0.0 0.0 3.854063520077573 6.675433832372109 0.0 0.0 0.0 22.29365937364323" Properties=species:S:1:pos:R:3:tags:I:1:forces:R:3:charge:R:1 energy=-4718.156152108973 free_energy=-4718.156152108973 stress="-0.012501851454017783 -4.445335879992039e-05 3.367220712703139e-05 -4.445335879992039e-05 -0.01416528436319727 -5.930571686410415e-05 3.367220712703139e-05 -5.930571686410415e-05 -0.015882301603088917" dipole="1.2812036423448496 0.6340669635386974 1.6972408532784935" pbc="T T F"
Cu       0.00000000       0.00000000       8.00000000        4      -0.14871944      -0.08755465      -0.32917304      -0.01301090
Cu       2.56937568       0.00000000       8.00000000        4       0.00495463      -0.15022791      -0.27176928       0.00485702
Cu       5.13875136       0.00000000       8.00000000        4       0.14614520      -0.08453392      -0.35474345      -0.01583775
Cu       1.28468784       2.22514461       8.00000000        4      -0.02782097       0.08454136      -0.22976230       0.02108350
Cu       3.85406352       2.22514461       8.00000000        4       0.04080633       0.08315220      -0.24225119       0.02208913
Cu       6.42343920       2.22514461       8.00000000        4      -0.01172259      -0.06668190      -0.28243356      -0.03000647
Cu       2.56937568       4.45028922       8.00000000        4      -0.00115276       0.09467358      -0.40171403      -0.03934663
Cu       5.13875136       4.45028922       8.00000000        4      -0.01557417       0.04494576      -0.31049137      -0.00647985
Cu       7.70812704       4.45028922       8.00000000        4       0.01816227       0.05752249      -0.31864131      -0.00587409
Cu       1.28468784       0.74171487      10.09788646        3       0.06623017      -0.00191638      -0.03360027      -0.01246928
Cu       3.85406352       0.74171487      10.09788646        3      -0.06357466      -0.02693138      -0.02628462      -0.01733069
Cu       6.42343920       0.74171487      10.09788646        3      -0.00644195       0.00371064      -0.09393643       0.02299573
Cu       2.56937568       2.96685948      10.09788646        3      -0.02286742       0.00397633      -0.02916377      -0.00067564
Cu       5.13875136       2.96685948      10.09788646        3      -0.02166297      -0.00705619      -0.06261267       0.02565955
Cu       7.70812704       2.96685948      10.09788646        3       0.04085240      -0.02198698      -0.07355986       0.02822941
Cu       3.85406352       5.19200409      10.09788646        3      -0.02196262       0.00345984      -0.02288033      -0.00451125
Cu       6.42343920       5.19200409      10.09788646        3      -0.00603583       0.10192714      -0.02052382      -0.00791644
Cu       8.99281488       5.19200409      10.09788646        3       0.02220226       0.00879275      -0.02060399      -0.00552251
Cu      -0.00001456       1.48341895      12.22216237        2      -0.05657952      -0.03305849       0.09387384      -0.03867803
Cu       2.56938632       1.48343972      12.22228812        2       0.00536489      -0.02551525       0.04534022       0.03740138
Cu       5.13868200       1.48341490      12.22229490        2       0.05834668      -0.02813117       0.08768692      -0.04202615
Cu       1.28472730       3.70860469      12.22229670        2       0.04671360      -0.02009961       0.09513520      -0.00989865
Cu       3.85404919       3.70853617      12.22226661        2      -0.00974982      -0.00851745       0.07038655      -0.01175760
Cu       6.42343137       3.70855859      12.22219237        2      -0.03129401      -0.05691592       0.04152379      -0.02556527
Cu       2.56933175       5.93372331      12.22226822        2       0.00254234       0.03048498      -0.20464096      -0.01138669
Cu       5.13873976       5.93371007      12.22221793        2       0.02784101       0.00143497       0.02671433       0.02060398
Cu       7.70811165       5.93376676      12.22227910        2      -0.02382614       0.03823558       0.02736608       0.02140718
Cu       0.00003176       0.00005032      14.34901118        1       0.15896705      -0.06431547       0.38990895      -0.01505967
Cu       2.56930125       0.00001804      14.34916312        1       0.02075176       0.00520677       0.35931254      -0.09469296
Cu       5.13864853       0.00002580      14.34922433        1      -0.17163708      -0.04643325       0.42162960      -0.01950120
Cu       1.28470809       2.22517124      14.34907163        1       0.19760999      -0.02895184       0.16845575      -0.02876122
Cu       3.85409307       2.22518508      14.34928516        1      -0.13137393       0.00852906       0.25515410      -0.03171198
Cu       6.42349021       2.22507450      14.34904494        1      -0.06825049      -0.11648198       0.33809137       0.25923296
Cu       2.56959011       4.45037276      14.34913478        1       0.04495393      -0.07269433       0.52653946      -0.07402344
Cu       5.13896751       4.45026038      14.34907842        1      -0.07145744       0.18983663       0.17918781      -0.03403322
Cu       7.70816084       4.45028686      14.34912297        1       0.02262894       0.20850769       0.20932550      -0.03243038
O        6.47231419       2.30622748      16.28861198        0       0.00917575      -0.00093355      -0.02626709      -0.48738347
C        6.70848665       3.58484855      16.87840371        0      -0.01229527      -0.01560981      -0.01140629       0.09875354
H        5.87517607       4.28684026      16.81570040        0      -0.01274291       0.01234206       0.00523790       0.07004793
H        7.71970808       3.98182838      16.75949409        0       0.00133814       0.00171188       0.00332835       0.07160772
H        6.54419793       2.50438790      17.42116730        0       0.00838774      -0.00412284       0.02037695       0.36960895
H       10.27539779       5.94891144      15.14834464        0      -0.00723308      -0.01432146       0.00188446       0.04231344
