41
Lattice="7.708127040155146 0.0 0.0 3.854063520077573 6.675433832372109 0.0 0.0 0.0 22.29365937364323" Properties=species:S:1:pos:R:3:tags:I:1:forces:R:3:charge:R:1 energy=-4376.672797649314 free_energy=-4376.672797649314 stress="-0.015477760079261054 -0.001384520687795 -0.0019272311164936391 -0.001384520687795 -0.013911979213638246 -0.0010995572261938795 -0.0019272311164936391 -0.0010995572261938795 -0.013616311071606034" dipole="0.3831978951401179 0.4721321350076125 1.9132420729444763" pbc="T T F"
Cu      -0.00000000      -0.00000000       8.00000000        4       0.04380585      -0.04196652      -0.33514405      -0.00429426
Cu       2.56937568      -0.00000000       8.00000000        4      -0.02572525      -0.01492705      -0.33197729      -0.02481084
Cu       5.13875136      -0.00000000       8.00000000        4      -0.00521629       0.01784695      -0.27778762       0.01444947
Cu       1.28468784       2.22514461       8.00000000        4      -0.07525330      -0.00100519      -0.27903173      -0.00563755
Cu       3.85406352       2.22514461       8.00000000        4       0.01293977      -0.01335151      -0.27783350       0.01441759
Cu       6.42343920       2.22514461       8.00000000        4       0.07303821       0.04215410      -0.34879399      -0.02493477
Cu       2.56937568       4.45028922       8.00000000        4       0.06209767       0.03580772      -0.28737441      -0.02332814
Cu       5.13875136       4.45028922       8.00000000        4      -0.01451231       0.05888556      -0.33518481      -0.00427534
Cu       7.70812704       4.45028922       8.00000000        4      -0.03845406      -0.06457567      -0.27909363      -0.00566716
Cu       1.28468784       0.74171487      10.09788646        3       0.01507674      -0.07593576      -0.03167434       0.00007223
Cu       3.85406352       0.74171487      10.09788646        3      -0.03467450      -0.02001014       0.00252180      -0.00183169
Cu       6.42343920       0.74171487      10.09788646        3      -0.01026917       0.00368637      -0.01204205      -0.01160374
Cu       2.56937568       2.96685948      10.09788646        3       0.03450836       0.03049958      -0.06944947       0.02063180
Cu       5.13875136       2.96685948      10.09788646        3      -0.00205888      -0.01074523      -0.01203814      -0.01160219
Cu       7.70812704       2.96685948      10.09788646        3      -0.06220651      -0.03592782      -0.11955879       0.02485063
Cu       3.85406352       5.19200409      10.09788646        3      -0.01595270      -0.00923522      -0.02374959       0.00129965
Cu       6.42343920       5.19200409      10.09788646        3      -0.05815560       0.05109552      -0.03165399       0.00005836
Cu       8.99281488       5.19200409      10.09788646        3       0.04353883       0.01460867      -0.06941666       0.02064145
Cu      -0.00001456       1.48341895      12.22216237        2      -0.01183326       0.01754079       0.03990434      -0.01143458
Cu       2.56938632       1.48343972      12.22228812        2       0.03309246      -0.05911807       0.08484135      -0.01439487
Cu       5.13868200       1.48341490      12.22229490        2       0.01773437       0.01021448       0.08635792       0.03032588
Cu       1.28472730       3.70860469      12.22229670        2       0.02520006       0.01453226       0.02680809      -0.01942627
Cu       3.85404919       3.70853617      12.22226661        2       0.00970475       0.04107658       0.09221976      -0.00962450
Cu       6.42343137       3.70855859      12.22219237        2       0.00932308      -0.01904543       0.03988085      -0.01146209
Cu       2.56933175       5.93372331      12.22226822        2       0.04039403      -0.01212610       0.09213753      -0.00962420
Cu       5.13873976       5.93371007      12.22221793        2       0.02780605       0.01607919       0.04265849       0.01632827
Cu       7.70811165       5.93376676      12.22227910        2      -0.03466139       0.05803191       0.08492893      -0.01438551
Cu       0.00003176       0.00005032      14.34901118        1       0.03304824      -0.18626165       0.29110425      -0.06819747
Cu       2.56930125       0.00001804      14.34916312        1      -0.00501730      -0.00417858       0.31949330      -0.07542568
Cu       5.13864853       0.00002580      14.34922433        1      -0.03658352       0.15367573       0.25390338      -0.02515587
Cu       1.28470809       2.22517124      14.34907163        1       0.12084852      -0.29921534       0.14577736       0.08164349
Cu       3.85409307       2.22518508      14.34928516        1       0.11463211      -0.10884633       0.25382198      -0.02514579
Cu       6.42349021       2.22507450      14.34904494        1       0.02867088       0.01633790       0.42643328      -0.07176027
Cu       2.56959011       4.45037276      14.34913478        1       0.14549093       0.08421454       0.35327203       0.06145810
Cu       5.13896751       4.45026038      14.34907842        1      -0.14570708       0.12184184       0.29089532      -0.06818672
Cu       7.70816084       4.45028686      14.34912297        1      -0.19779596       0.25452954       0.14494005       0.08146848
O        8.98210763       3.70233043      16.21487315        0     221.88337196     128.10650046     -20.84271523      -0.48363549
C        7.75814352       2.99569339      16.32984320        0    -221.80397325    -128.04356465      20.71743343       0.12114492
H        6.97567004       3.58804248      16.80869092        0      -0.09605360       0.06983644       0.05844575       0.05841981
H        7.87888772       2.02322117      16.80990317        0       0.01796505      -0.13603582       0.06805606       0.05859227
H        8.57060390       3.46863119      17.24708070        0       0.00068079       0.00009268      -0.00086965       0.42004264
