31
Lattice="8.493 0.0 0.0 4.2465 6.005457892617349 0.0 0.0 0.0 20.003638595078232" Properties=species:S:1:pos:R:3:tags:I:1:forces:R:3:charge:R:1 charge=0 spin=0 energy=-2420.616824809846 free_energy=-2420.616824809846 stress="0.021132321022563127 0.0002848997633787559 0.0002611499882628953 0.0002848997633787559 0.000926020547541755 -0.00017778929803800243 0.0002611499882628953 -0.00017778929803800243 -0.004674792983605417" dipole="-0.4908140980942471 0.24100705325170846 1.8419291588271545" pbc="T T T"
Fe       0.00000000       0.00000000       8.00000000        3       0.09535062      -0.01070424      -0.03088912      -0.00618691
Fe       2.83100000       0.00000000       8.00000000        3      -0.09914081      -0.02039297      -0.05108063      -0.00603672
Fe       5.66200000       0.00000000       8.00000000        3      -0.06792122       0.02669775      -0.19288464      -0.00537339
Fe       1.41550000       2.00181930       8.00000000        3      -0.02286228      -0.04875672      -0.01289256      -0.00677899
Fe       4.24650000       2.00181930       8.00000000        3      -0.02706432       0.01564569      -0.08489411      -0.00578836
Fe       7.07750000       2.00181930       8.00000000        3       0.00252162      -0.03525174       0.00662167      -0.00559983
Fe       2.83100000       4.00363860       8.00000000        3      -0.10792491       0.03607119      -0.01494211      -0.00599498
Fe       5.66200000       4.00363860       8.00000000        3       0.02023760       0.00596188      -0.17852910      -0.00522512
Fe       8.49300000       4.00363860       8.00000000        3       0.08033068       0.02751112      -0.04384739      -0.00553346
Fe       0.00000000       2.00181930      10.00181930        2      -0.64835803       0.06594918      -0.46582046       0.00294235
Fe       2.83100000       2.00181930      10.00181930        2       0.90741611      -0.04071379      -0.08815515      -0.00127926
Fe       5.66200000       2.00181930      10.00181930        2       0.03014798       0.03156488      -0.59288380       0.00198204
Fe       1.41550000       4.00363860      10.00181930        2       0.00079084      -0.34052390       0.40508783      -0.00017977
Fe       4.24650000       4.00363860      10.00181930        2       0.45594992       0.14650628      -0.87754885       0.00117567
Fe       7.07750000       4.00363860      10.00181930        2      -0.65162231      -0.03074516      -0.93008783      -0.00079539
Fe       2.83100000       6.00545789      10.00181930        2      -0.67472832       0.06028168      -1.30018448      -0.00036896
Fe       5.66200000       6.00545789      10.00181930        2      -0.08973138       0.19122015       0.18767311       0.00435627
Fe       8.49300000       6.00545789      10.00181930        2       0.52021987       0.03519879      -0.91930157       0.00134117
Fe      -0.26518266       0.20945978      11.83722203        1       1.80410979      -0.56943371       2.12530350       0.04349189
Fe       3.10512793       0.18549752      11.83541618        1      -0.21449785       0.18015429       0.34538695       0.01380430
Fe       5.66127124      -0.56860039      11.83522456        1      -0.04133282      -0.19093995       0.17617479       0.00460369
Fe       1.41585411       2.01518229      11.75852330        1      -0.55088271      -0.33358406       1.90517702       0.04268328
Fe       4.47368163       1.98069598      12.10686849        1       1.07442933      -0.01903352       1.71044639       0.00899338
Fe       6.85044192       1.98487394      12.10678346        1      -1.34112828       0.52368208       1.77661497      -0.00039705
Fe       3.11615338       3.77708131      11.83899590        1      -0.45107753      -0.15179567       0.35304160      -0.00400226
Fe       5.66167640       4.54490648      11.82915865        1       0.24431573      -0.21800439      -0.01046635       0.02483289
Fe       8.20150754       3.79684420      11.83610770        1       0.59735146       0.45066226       0.51555164       0.00477243
N        5.95424788       1.91874180      13.58756482        0      -0.02418079      -0.00582254       0.74194375      -0.27058058
H        7.50447103       1.48211774      13.40594189        0      -0.00060753       0.00051551      -0.00041697       0.33552659
H        5.92214983       1.91110457      14.61450530        0       0.02317052       0.00532121      -0.74009313       0.26050349
O        0.41127909       1.08505516      13.23240495        0       0.00128900      -0.00080153      -0.00029998      -0.42088842
