31
Lattice="8.493 0.0 0.0 4.2465 6.005457892617349 0.0 0.0 0.0 20.003638595078232" Properties=species:S:1:pos:R:3:tags:I:1:forces:R:3:charge:R:1 charge=0 spin=0 energy=-2459.771868569629 free_energy=-2459.771868569629 stress="0.025796998316731913 0.0009141468961971482 -0.0005387077807312354 0.0009141468961971482 0.0002568159202453524 -0.000817045262004933 -0.0005387077807312354 -0.000817045262004933 0.0012261728586121172" dipole="2.773177177783437 0.5454227539493668 1.7546970608542498" pbc="T T T"
Fe       0.00000000       0.00000000       8.00000000        3       0.03861467      -0.07116260      -0.07579797      -0.00585930
Fe       2.83100000       0.00000000       8.00000000        3       0.00913150      -0.08602902      -0.09043533      -0.00589662
Fe       5.66200000       0.00000000       8.00000000        3       0.01012231      -0.06751303      -0.06677870      -0.00595400
Fe       1.41550000       2.00181930       8.00000000        3      -0.06085345      -0.03749582       0.05599294      -0.00648149
Fe       4.24650000       2.00181930       8.00000000        3       0.07260735      -0.03075639      -0.17182112      -0.00628778
Fe       7.07750000       2.00181930       8.00000000        3       0.02536852      -0.07450660      -0.00750561      -0.00513724
Fe       2.83100000       4.00363860       8.00000000        3      -0.04302064      -0.07381682      -0.03671802      -0.00658322
Fe       5.66200000       4.00363860       8.00000000        3      -0.00323984      -0.03419562      -0.03415256      -0.00583548
Fe       8.49300000       4.00363860       8.00000000        3       0.01357368      -0.06730939      -0.10754781      -0.00541990
Fe       0.00000000       2.00181930      10.00181930        2      -0.07669497      -0.30717388      -0.14467396       0.00529059
Fe       2.83100000       2.00181930      10.00181930        2       0.27669201       0.18105289      -0.64156080       0.00379498
Fe       5.66200000       2.00181930      10.00181930        2       0.10977473      -0.00545098      -0.17360699       0.00194578
Fe       1.41550000       4.00363860      10.00181930        2      -0.25062546      -0.15373237       0.21952354       0.00263472
Fe       4.24650000       4.00363860      10.00181930        2      -0.14593018       0.19226243       0.06167115       0.00049787
Fe       7.07750000       4.00363860      10.00181930        2       0.22858485      -0.20271009       0.20059450      -0.00012509
Fe       2.83100000       6.00545789      10.00181930        2      -0.34301278       0.14754565      -0.16227458       0.00145833
Fe       5.66200000       6.00545789      10.00181930        2       0.38224110       0.13733325      -0.46863447       0.00527567
Fe       8.49300000       6.00545789      10.00181930        2       0.06034231       0.21776233      -0.09748112       0.00379152
Fe       0.03741592      -0.48914617      11.79287658        1       0.36086281       0.48463527       1.03155460       0.03652402
Fe       2.92453378      -0.61396560      11.85604292        1       0.55431894      -0.26510589      -0.20989563       0.01536678
Fe       5.54632602      -0.61842095      11.85327239        1      -0.36402950      -0.29100874      -0.19850611      -0.01164946
Fe       1.66696818       1.38343146      11.84399285        1      -0.84313756      -0.02867212       2.64359965       0.05889344
Fe       4.21157470       1.43718857      11.85463923        1      -0.08039807       0.04686449      -0.15132752      -0.00061698
Fe       6.79451448       1.34196791      11.96079996        1      -0.53454040       0.26995341       1.75134163       0.02931026
Fe       2.82388211       3.48373599      11.82196881        1       0.11150862       0.12246418      -0.21274001      -0.00534407
Fe       5.58356007       3.48685678      11.80524310        1       0.07433608      -0.07113590       0.25729026       0.01229157
Fe       8.44862271       3.30647500      11.95141457        1      -0.27482676       0.52262722      -0.16393643       0.01965975
N        7.07545008       2.00263734      13.58548139        0      -0.24703165       0.19192713       0.67912397      -0.32388580
H        8.28332573       1.50227481      13.68365168        0      -0.00242056      -0.00215109      -0.00069246       0.38012233
H        6.73729209       2.26855713      14.52024164        0       0.24080808      -0.19088027      -0.66628847       0.25328325
O        0.71322493       0.99783157      13.19894449        0       0.01582493      -0.00156728       0.00268990      -0.43506443
