29
Lattice="8.493 0.0 0.0 4.2465 6.005457892617349 0.0 0.0 0.0 20.003638595078232" Properties=species:S:1:pos:R:3:initial_charges:R:1:tags:I:1:forces:R:3 charge=0 spin=0 energy=-193.46513588392054 free_energy=-193.46513588392054 stress="0.04219881445169449 0.0024770775344222784 0.00012541015166789293 0.0024770775344222784 0.028367390856146812 0.0005243225023150444 0.00012541015166789293 0.0005243225023150444 0.009061981923878193" dipole="0.5284567639599217 -0.0457246127458522 0.5091865393151982" pbc="T T T"
Fe       0.00000000       0.00000000       8.00000000      -0.00373482        3       0.05455425       0.00783633       0.57971370
Fe       2.83100000       0.00000000       8.00000000      -0.00356394        3      -0.03434891       0.08904972       0.66098654
Fe       5.66200000       0.00000000       8.00000000      -0.00428884        3       0.10066910      -0.01373258       0.46877474
Fe       1.41550000       2.00181930       8.00000000      -0.00371100        3      -0.12389130       0.09154205       0.53198355
Fe       4.24650000       2.00181930       8.00000000      -0.00430357        3       0.13199028      -0.02347972       0.41967353
Fe       7.07750000       2.00181930       8.00000000      -0.00469003        3       0.05117684       0.01077546       0.55956542
Fe       2.83100000       4.00363860       8.00000000      -0.00350762        3       0.04360467      -0.01266181       0.32910848
Fe       5.66200000       4.00363860       8.00000000      -0.00414572        3       0.05990471       0.01967352       0.51891673
Fe       8.49300000       4.00363860       8.00000000      -0.00385547        3      -0.09434743       0.05942922       0.49761721
Fe       0.00000000       2.00181930      10.00181930      -0.00035448        2      -0.10686052      -0.05981370       0.16281588
Fe       2.83100000       2.00181930      10.00181930       0.00416982        2      -0.08742106      -0.00599827      -1.18348336
Fe       5.66200000       2.00181930      10.00181930       0.00189209        2       0.16258554      -0.10374901      -0.34169790
Fe       1.41550000       4.00363860      10.00181930       0.00205892        2      -0.10385038       0.21393770      -1.17074239
Fe       4.24650000       4.00363860      10.00181930       0.00445388        2       0.00736883      -0.23762371      -0.68058634
Fe       7.07750000       4.00363860      10.00181930       0.00111260        2       0.03013781      -0.00988446      -0.03463769
Fe       2.83100000       6.00545789      10.00181930       0.00087967        2      -0.03929988      -0.23363617      -0.41139752
Fe       5.66200000       6.00545789      10.00181930       0.00211395        2      -0.03602233       0.06144420      -0.02230936
Fe       8.49300000       6.00545789      10.00181930       0.00422158        2      -0.13396709       0.15900534      -0.85436940
Fe      -0.40079960       0.68734795      12.07223234      -0.01372027        1       0.01329090      -0.00728101       0.00577276
Fe       3.15337623      -0.50059355      11.86911393      -0.00709814        1       0.01520801       0.02161022      -0.01409714
Fe       5.64272148       0.53095872      11.93446547       0.00370290        1       0.02314872      -0.00297887      -0.01218281
Fe       1.80273808       1.68280845      11.86238113      -0.02115811        1       0.02304931       0.01743235       0.02490750
Fe       4.17954979       2.53426434      11.81276331      -0.00140328        1      -0.00003596       0.00057367      -0.01291571
Fe       6.56818460       2.80377250      12.06775635      -0.01184794        1       0.00721704      -0.00980249       0.00489358
Fe       2.74424929       4.42974107      11.82443521      -0.00759240        1       0.00506932       0.01151914       0.00391216
Fe       5.16608254       4.68596754      11.93831555       0.00373821        1       0.00876262      -0.00211444       0.01091884
Fe       8.86461608       3.59531650      11.82858708      -0.00286937        1       0.00101535      -0.00646634       0.00355321
N        6.80056635       1.34544434      13.09371919      -0.11970816        0       0.01760569      -0.02950957      -0.03421373
H        9.71424179       0.25203045      12.75208333       0.19320955        0       0.00368586      -0.00509695      -0.01048101
