29
Lattice="8.493 0.0 0.0 4.2465 6.005457892617349 0.0 0.0 0.0 20.003638595078232" Properties=species:S:1:pos:R:3:tags:I:1:forces:R:3 charge=0 spin=0 energy=-190.78830389185862 free_energy=-190.78830389185862 stress="0.04295344278216362 -0.0002652981784194708 1.1122511978101102e-06 -0.0002652981784194708 0.029069412499666214 4.1553398659743834e-06 1.1122511978101102e-06 4.1553398659743834e-06 0.00926897395402193" pbc="T T T"
Fe       0.00000000       0.00000000       8.00000000        3       0.07914224      -0.03714350       0.60962486
Fe       2.83100000       0.00000000       8.00000000        3      -0.05919742      -0.01862033       0.54812866
Fe       5.66200000       0.00000000       8.00000000        3       0.00555013       0.06351504       0.28734937
Fe       1.41550000       2.00181930       8.00000000        3      -0.00000166      -0.00009285       0.66729331
Fe       4.24650000       2.00181930       8.00000000        3       0.07973722      -0.00657367       0.54640383
Fe       7.07750000       2.00181930       8.00000000        3      -0.07970375       0.00611103       0.54637671
Fe       2.83100000       4.00363860       8.00000000        3      -0.07913828       0.03685935       0.60966069
Fe       5.66200000       4.00363860       8.00000000        3      -0.00553293      -0.06374487       0.28731981
Fe       8.49300000       4.00363860       8.00000000        3       0.05922184       0.01841019       0.54818577
Fe       0.00000000       2.00181930      10.00181930        2      -0.94132811      -0.00892774      -0.20944782
Fe       2.83100000       2.00181930      10.00181930        2       0.94146031       0.01036406      -0.20959356
Fe       5.66200000       2.00181930      10.00181930        2       0.00005611       0.00052462       0.10763931
Fe       1.41550000       4.00363860      10.00181930        2      -0.03623103      -0.06179232       0.28603753
Fe       4.24650000       4.00363860      10.00181930        2       0.33160558       0.09081522      -1.21476710
Fe       7.07750000       4.00363860      10.00181930        2      -0.33269837       0.04542677      -1.19500828
Fe       2.83100000       6.00545789      10.00181930        2      -0.33229366      -0.09012322      -1.21560788
Fe       5.66200000       6.00545789      10.00181930        2       0.03609658       0.06269769       0.28706345
Fe       8.49300000       6.00545789      10.00181930        2       0.33337456      -0.04430149      -1.19606698
Fe      -0.26998069       0.23168674      11.82766778        1       0.00577734      -0.04535496      -0.01659646
Fe       3.10818859       0.19952986      11.83023700        1      -0.00103249      -0.01074773       0.00166045
Fe       5.67068031      -0.52721573      11.83131237        1      -0.00834821      -0.01460719      -0.00411069
Fe       1.41551551       2.00127216      11.75688721        1       0.00000552      -0.00085467       0.02049591
Fe       4.42988867       2.00096207      12.14963380        1       0.01679902      -0.02008315      -0.03929893
Fe       6.89407618       2.00220342      12.14968394        1      -0.01620899       0.01932378      -0.03990147
Fe       3.10078097       3.77130713      11.82759354        1      -0.00625620       0.04457222      -0.01675445
Fe       5.65331080       4.53069413      11.83133193        1       0.00830083       0.01446644      -0.00401448
Fe       8.21603436       3.80338066      11.83017738        1       0.00139614       0.00952048       0.00148835
O        5.66202987       2.00239032      13.57306565        0      -0.00056197       0.00148287      -0.02801197
H        5.66201647       2.00147590      14.54233096        0       0.00000950      -0.00112189       0.03445285
