28
Lattice="8.493 0.0 0.0 4.2465 6.005457892617349 0.0 0.0 0.0 20.003638595078232" Properties=species:S:1:pos:R:3:tags:I:1:forces:R:3 charge=0 spin=0 energy=-186.86284807791924 free_energy=-186.86284807791924 stress="0.04535234346985817 1.9877175873261876e-05 5.312533524204355e-09 1.9877175873261876e-05 0.028805041685700417 1.6681633852044797e-08 5.312533524204355e-09 1.6681633852044797e-08 0.009973625652492046" pbc="T T T"
Fe       0.00000000       0.00000000       8.00000000        3       0.00000018       0.00000063       0.44466963
Fe       2.83100000       0.00000000       8.00000000        3       0.02032691       0.00487236       0.51976597
Fe       5.66200000       0.00000000       8.00000000        3      -0.02032723      -0.00487077       0.51976883
Fe       1.41550000       2.00181930       8.00000000        3      -0.11604828       0.00124286       0.64123988
Fe       4.24650000       2.00181930       8.00000000        3       0.05059434      -0.03308687       0.57604623
Fe       7.07750000       2.00181930       8.00000000        3       0.01391116      -0.01998974       0.52488285
Fe       2.83100000       4.00363860       8.00000000        3       0.11604907      -0.00124513       0.64124084
Fe       5.66200000       4.00363860       8.00000000        3      -0.01391065       0.01998847       0.52488238
Fe       8.49300000       4.00363860       8.00000000        3      -0.05059455       0.03308536       0.57604557
Fe       0.00000000       2.00181930      10.00181930        2      -0.38518947       0.16791794      -0.06678295
Fe       2.83100000       2.00181930      10.00181930        2       0.06321654       0.03868109      -0.65390575
Fe       5.66200000       2.00181930      10.00181930        2       0.38336918      -0.06764919      -0.53930324
Fe       1.41550000       4.00363860      10.00181930        2      -0.06322067      -0.03867375      -0.65390861
Fe       4.24650000       4.00363860      10.00181930        2       0.38519520      -0.16791311      -0.06678098
Fe       7.07750000       4.00363860      10.00181930        2      -0.38336992       0.06764875      -0.53930438
Fe       2.83100000       6.00545789      10.00181930        2       0.06108226      -0.11765286      -0.81581372
Fe       5.66200000       6.00545789      10.00181930        2      -0.06107783       0.11765942      -0.81580943
Fe       8.49300000       6.00545789      10.00181930        2      -0.00000519       0.00000279      -0.65436089
Fe      -0.00000014      -0.00000052      11.83660366        1       0.00000407      -0.00000636      -0.05840582
Fe       2.82117381       0.02158928      11.83935604        1      -0.01507879       0.05317391      -0.05771295
Fe       5.67182650      -0.02158971      11.83935513        1       0.01507481      -0.05317732      -0.05771006
Fe       1.42608707       1.99697550      11.85977051        1       0.05851814      -0.02967479      -0.01543740
Fe       4.20891532       1.99792115      11.84311298        1      -0.06032315       0.09623174      -0.07048880
Fe       7.00582259       1.92373132      12.01495033        1      -0.22380085      -0.32908440       0.07623344
Fe       2.82041270       4.00848137      11.85976993        1      -0.05851917       0.02966964      -0.01543206
Fe       5.73367941       4.08172400      12.01495150        1       0.22380608       0.32907823       0.07623465
Fe       8.53058440       4.00753671      11.84311311        1       0.06032052      -0.09623629      -0.07048638
O        6.36975199       3.00272739      13.25175680        0      -0.00000273       0.00000741       0.03063329
