28
Lattice="8.493 0.0 0.0 4.2465 6.005457892617349 0.0 0.0 0.0 20.003638595078232" Properties=species:S:1:pos:R:3:tags:I:1:forces:R:3 charge=0 spin=0 energy=-188.65637165933663 free_energy=-188.65637165933663 stress="0.03811389580368996 0.005521570798009634 1.835917828429956e-06 0.005521570798009634 0.02366686426103115 -4.509248810791178e-06 1.835917828429956e-06 -4.509248810791178e-06 0.008944115601480007" pbc="T T T"
Fe       0.00000000       0.00000000       8.00000000        3       0.00002593       0.00001316       0.63556975
Fe       2.83100000       0.00000000       8.00000000        3      -0.10631750      -0.00562561       0.33756298
Fe       5.66200000       0.00000000       8.00000000        3       0.10630848       0.00568940       0.33761320
Fe       1.41550000       2.00181930       8.00000000        3      -0.01232047       0.00839236       0.76429939
Fe       4.24650000       2.00181930       8.00000000        3       0.00837639      -0.00005976       0.46627167
Fe       7.07750000       2.00181930       8.00000000        3       0.05381409      -0.01440617       0.44518283
Fe       2.83100000       4.00363860       8.00000000        3       0.01227372      -0.00836929       0.76432937
Fe       5.66200000       4.00363860       8.00000000        3      -0.05381513       0.01440692       0.44514090
Fe       8.49300000       4.00363860       8.00000000        3      -0.00836144       0.00007606       0.46629885
Fe       0.00000000       2.00181930      10.00181930        2      -0.88825023      -0.10364443      -0.14181635
Fe       2.83100000       2.00181930      10.00181930        2       0.88848948       0.10029253      -0.10520773
Fe       5.66200000       2.00181930      10.00181930        2      -0.04847399      -0.07598916      -1.10201371
Fe       1.41550000       4.00363860      10.00181930        2      -0.88852173      -0.10029999      -0.10497529
Fe       4.24650000       4.00363860      10.00181930        2       0.88835496       0.10328706      -0.14190856
Fe       7.07750000       4.00363860      10.00181930        2       0.04859633       0.07610929      -1.10200846
Fe       2.83100000       6.00545789      10.00181930        2      -0.68499166      -0.16307561      -0.39152038
Fe       5.66200000       6.00545789      10.00181930        2       0.68517208       0.16283204      -0.39177728
Fe       8.49300000       6.00545789      10.00181930        2       0.00006225      -0.00004953      -1.28852773
Fe       0.00004084       0.00002547      11.81644439        1      -0.00052286       0.00053760       0.01587867
Fe       3.07705980       0.38618325      11.82753947        1       0.01113568       0.04019526       0.02111364
Fe       5.41592036      -0.38618371      11.82754231        1      -0.01101155      -0.04021077       0.02107070
Fe       1.43240560       2.02359922      11.80787692        1      -0.01202400       0.04635179       0.00654239
Fe       4.59505043       2.45309095      11.92941212        1       0.03279377      -0.03140196      -0.01146755
Fe       6.84905178       1.39759009      11.97169588        1       0.00683866       0.00854022       0.02414747
Fe       2.81412094       3.98192802      11.80787631        1       0.01214194      -0.04609836       0.00649650
Fe       5.89034832       4.60817995      11.97158566        1      -0.00484234      -0.01584761       0.02663846
Fe       8.14445218       3.55233928      11.92940768        1      -0.03319328       0.03199985      -0.01143621
N        6.36981598       3.00245316      12.62609955        0      -0.00173722       0.00635482       0.00850286
