31
Lattice="8.493 0.0 0.0 4.2465 6.005457892617349 0.0 0.0 0.0 20.003638595078232" Properties=species:S:1:pos:R:3:tags:I:1:forces:R:3:charge:R:1 charge=0 spin=0 energy=-2413.4366180992206 free_energy=-2413.4366180992206 stress="0.03042869237607953 -0.0039824103870340286 0.0006034330886718525 -0.0039824103870340286 0.005499424351580145 -0.003013738312473406 0.0006034330886718525 -0.003013738312473406 0.010657926313210555" dipole="-0.878088956133865 1.1680766126100237 0.6869888818716482" pbc="T T T"
Fe       0.00000000       0.00000000       8.00000000        3       0.02019144      -0.06731616      -0.04165509      -0.00134604
Fe       2.83100000       0.00000000       8.00000000        3       0.00410894      -0.13065540      -0.10767073      -0.00228362
Fe       5.66200000       0.00000000       8.00000000        3       0.02437284      -0.05445753      -0.00902518      -0.00274440
Fe       1.41550000       2.00181930       8.00000000        3      -0.01881861      -0.10266981      -0.04822762      -0.00230099
Fe       4.24650000       2.00181930       8.00000000        3      -0.00029800      -0.04778090      -0.00253503      -0.00366033
Fe       7.07750000       2.00181930       8.00000000        3      -0.02905870      -0.03264996      -0.05010555      -0.00127112
Fe       2.83100000       4.00363860       8.00000000        3      -0.03586934      -0.05525346      -0.10146383      -0.00274626
Fe       5.66200000       4.00363860       8.00000000        3       0.01958660      -0.03131770      -0.03714025      -0.00176857
Fe       8.49300000       4.00363860       8.00000000        3      -0.01537530      -0.07997706      -0.02552323      -0.00227807
Fe       0.00000000       2.00181930      10.00181930        2      -0.06263025      -0.26454192      -0.04568686      -0.00121543
Fe       2.83100000       2.00181930      10.00181930        2      -0.33028290       0.18648465      -0.06240409       0.00539357
Fe       5.66200000       2.00181930      10.00181930        2      -0.00539584       0.25292857       0.09352767       0.00315632
Fe       1.41550000       4.00363860      10.00181930        2       0.00746130       0.19361710      -0.13790689       0.00380430
Fe       4.24650000       4.00363860      10.00181930        2       0.17840137      -0.03344446       0.05250379       0.00081247
Fe       7.07750000       4.00363860      10.00181930        2      -0.05767618      -0.19533912       0.00132941       0.00328671
Fe       2.83100000       6.00545789      10.00181930        2       0.17068064       0.36873736       0.14615317       0.00128866
Fe       5.66200000       6.00545789      10.00181930        2       0.16495636      -0.21964204       0.02810540       0.00231219
Fe       8.49300000       6.00545789      10.00181930        2      -0.07676280       0.02620797      -0.12224815       0.00289257
Fe       0.01583942      -0.52786720      11.82091579        1      -0.06496656       0.30733567       1.44221339       0.02987847
Fe       3.03299751      -0.65326763      11.87505361        1       0.33562358       0.02649751       0.05796336       0.02084900
Fe       5.61331729      -0.55808429      11.83280806        1      -0.14564142      -0.03658635       0.04103267       0.01251993
Fe       1.56814803       1.33770393      11.87761298        1      -0.00764586      -0.05746582       0.41526301       0.02047734
Fe       4.10870195       1.42616631      11.81132008        1      -0.07342762       0.10038586       0.33418326       0.00901981
Fe       7.03048324       1.50753747      11.88862050        1      -0.32339617       0.54323485       1.61198981       0.02319113
Fe       2.81956076       3.46059003      11.83442852        1      -0.08092424      -0.05719602       0.15294354       0.01356816
Fe       5.62724927       3.43485220      11.91727878        1       0.55856635      -0.79192063       1.59959111       0.02454087
Fe       8.74910444       3.35874663      11.84773091        1      -0.04792634       0.16118732       0.42899010       0.01673246
N        6.55437068       2.74035121      13.61894833        0      -0.17007648       0.05452687       0.65774570      -0.25086709
H        7.47870703       1.43398723      13.99562360        0       0.00085979      -0.00000482       0.00059465       0.32599269
H        6.30305850       2.82738040      14.61281785        0       0.16738242      -0.05791307      -0.66095349       0.27358645
O       -0.18515743       0.26284988      14.33354539        0       0.00129794       0.00061788      -0.00111705      -0.52082118
