37
Lattice="7.708127040155146 0.0 0.0 3.854063520077573 6.675433832372109 0.0 0.0 0.0 22.29365937364323" Properties=species:S:1:pos:R:3:tags:I:1:forces:R:3:charge:R:1 energy=-4604.15279592729 free_energy=-4604.15279592729 stress="-0.013190551859749279 5.813114891465885e-07 3.7620374558640856e-07 5.813114891465885e-07 -0.013189570773744733 3.328844508514542e-07 3.7620374558640856e-07 3.328844508514542e-07 -0.017800163006974394" dipole="0.8448572525519722 0.4878700310825622 0.5179949345129209" pbc="T T F"
Cu       0.00000000       0.00000000       8.00000000        4      -0.00239610      -0.00142417      -0.28899095       0.01409983
Cu       2.56937568       0.00000000       8.00000000        4       0.00002859       0.00255087      -0.28239195       0.01508326
Cu       5.13875136       0.00000000       8.00000000        4       0.00236587      -0.00135282      -0.28899628       0.01409643
Cu       1.28468784       2.22514461       8.00000000        4       0.00219609      -0.00126341      -0.28237376       0.01508339
Cu       3.85406352       2.22514461       8.00000000        4      -0.00219811      -0.00129715      -0.28239477       0.01508257
Cu       6.42343920       2.22514461       8.00000000        4      -0.00000114       0.07348654      -0.31076029      -0.01190375
Cu       2.56937568       4.45028922       8.00000000        4       0.00004654       0.00277756      -0.28898025       0.01410253
Cu       5.13875136       4.45028922       8.00000000        4       0.06360312      -0.03671977      -0.31076617      -0.01190812
Cu       7.70812704       4.45028922       8.00000000        4      -0.06365293      -0.03674861      -0.31075072      -0.01190756
Cu       1.28468784       0.74171487      10.09788646        3      -0.02108639      -0.01220668      -0.10384064      -0.03734122
Cu       3.85406352       0.74171487      10.09788646        3       0.02114146      -0.01221189      -0.10373699      -0.03734886
Cu       6.42343920       0.74171487      10.09788646        3      -0.00009163      -0.06925152      -0.05252886      -0.00390905
Cu       2.56937568       2.96685948      10.09788646        3      -0.00001951       0.02441056      -0.10370972      -0.03734785
Cu       5.13875136       2.96685948      10.09788646        3       0.01514231       0.00870990      -0.08481617       0.01723370
Cu       7.70812704       2.96685948      10.09788646        3      -0.01509209       0.00881678      -0.08490223       0.01724078
Cu       3.85406352       5.19200409      10.09788646        3      -0.06000140       0.03459431      -0.05251401      -0.00390019
Cu       6.42343920       5.19200409      10.09788646        3       0.00005442      -0.01750569      -0.08484773       0.01723390
Cu       8.99281488       5.19200409      10.09788646        3       0.05991289       0.03461287      -0.05245040      -0.00390721
Cu      -0.00001456       1.48341895      12.22216237        2       0.00208736      -0.04108224      -0.01093169      -0.04693967
Cu       2.56938632       1.48343972      12.22228812        2      -0.00012578      -0.00001475       0.03108687       0.07425222
Cu       5.13868200       1.48341490      12.22229490        2      -0.00177024      -0.04116020      -0.01114148      -0.04694357
Cu       1.28472730       3.70860469      12.22229670        2       0.03648153       0.01879133      -0.01121441      -0.04694936
Cu       3.85404919       3.70853617      12.22226661        2      -0.03655096       0.01906337      -0.01105144      -0.04694118
Cu       6.42343137       3.70855859      12.22219237        2       0.00014955       0.00005349      -0.22719665      -0.09777974
Cu       2.56933175       5.93372331      12.22226822        2       0.00010476       0.00004713      -0.03776698      -0.00099361
Cu       5.13873976       5.93371007      12.22221793        2      -0.03469109       0.02232168      -0.01104239      -0.04694250
Cu       7.70811165       5.93376676      12.22227910        2       0.03464198       0.02208840      -0.01110692      -0.04694488
Cu       0.00003176       0.00005032      14.34901118        1      -0.04119974      -0.02407401       0.36553608      -0.06787792
Cu       2.56930125       0.00001804      14.34916312        1       0.00036528       0.12356534       0.26327808      -0.02211302
Cu       5.13864853       0.00002580      14.34922433        1       0.04153248      -0.02391608       0.36518421      -0.06790720
Cu       1.28470809       2.22517124      14.34907163        1       0.10708024      -0.06153908       0.26342167      -0.02210074
Cu       3.85409307       2.22518508      14.34928516        1      -0.10699599      -0.06181333       0.26304797      -0.02208737
Cu       6.42349021       2.22507450      14.34904494        1      -0.00017753      -0.34286341       0.59769945       0.36140136
Cu       2.56959011       4.45037276      14.34913478        1      -0.00066300       0.04732955       0.36534807      -0.06788401
Cu       5.13896751       4.45026038      14.34907842        1      -0.29783494       0.17173921       0.59746734       0.36140806
Cu       7.70816084       4.45028686      14.34912297        1       0.29757466       0.17172589       0.59739244       0.36143552
O        6.42355924       3.70848624      15.38503162        0       0.00003947      -0.00023996      -0.00825831      -0.48787498
