37
Lattice="7.708127040155146 0.0 0.0 3.854063520077573 6.675433832372109 0.0 0.0 0.0 22.29365937364323" Properties=species:S:1:pos:R:3:tags:I:1:forces:R:3:charge:R:1 energy=-4604.143592362023 free_energy=-4604.143592362023 stress="-0.012928976817245651 5.951669896021219e-07 3.6176909521855974e-07 5.951669896021219e-07 -0.012927899498682643 3.80475644481527e-07 3.6176909521855974e-07 3.80475644481527e-07 -0.017107064717870903" dipole="0.7299124517114751 0.42151553874944536 0.43458191321152745" pbc="T T F"
Cu       0.00000000       0.00000000       8.00000000        4      -0.00182446      -0.00109274      -0.28491286       0.01482551
Cu       2.56937568       0.00000000       8.00000000        4       0.00002800       0.00774611      -0.28341923       0.01432407
Cu       5.13875136       0.00000000       8.00000000        4       0.00179478      -0.00102272      -0.28491739       0.01482311
Cu       1.28468784       2.22514461       8.00000000        4       0.00669877      -0.00386062      -0.28340126       0.01432537
Cu       3.85406352       2.22514461       8.00000000        4      -0.00670096      -0.00389383      -0.28342228       0.01432354
Cu       6.42343920       2.22514461       8.00000000        4      -0.00000095       0.07554769      -0.30894053      -0.01109690
Cu       2.56937568       4.45028922       8.00000000        4       0.00004561       0.00211432      -0.28490214       0.01482772
Cu       5.13875136       4.45028922       8.00000000        4       0.06539057      -0.03775018      -0.30894540      -0.01110210
Cu       7.70812704       4.45028922       8.00000000        4      -0.06543941      -0.03777869      -0.30893071      -0.01110198
Cu       1.28468784       0.74171487      10.09788646        3      -0.01780131      -0.01030733      -0.10235874      -0.03621413
Cu       3.85406352       0.74171487      10.09788646        3       0.01785432      -0.01031053      -0.10225796      -0.03622147
Cu       6.42343920       0.74171487      10.09788646        3      -0.00008977      -0.06751743      -0.05425303      -0.00400370
Cu       2.56937568       2.96685948      10.09788646        3      -0.00001900       0.02061587      -0.10222825      -0.03622137
Cu       5.13875136       2.96685948      10.09788646        3       0.02013285       0.01159139      -0.08555456       0.01618595
Cu       7.70812704       2.96685948      10.09788646        3      -0.02008387       0.01169874      -0.08563911       0.01619227
Cu       3.85406352       5.19200409      10.09788646        3      -0.05850116       0.03372595      -0.05423670      -0.00399352
Cu       6.42343920       5.19200409      10.09788646        3       0.00005398      -0.02327173      -0.08559013       0.01618787
Cu       8.99281488       5.19200409      10.09788646        3       0.05841305       0.03374276      -0.05417390      -0.00400030
Cu      -0.00001456       1.48341895      12.22216237        2      -0.00022145      -0.04085508       0.00164781      -0.04585602
Cu       2.56938632       1.48343972      12.22228812        2      -0.00012447      -0.00001580       0.04094440       0.07037722
Cu       5.13868200       1.48341490      12.22229490        2       0.00053718      -0.04093059       0.00143643      -0.04586041
Cu       1.28472730       3.70860469      12.22229670        2       0.03512954       0.02067973       0.00136279      -0.04586719
Cu       3.85404919       3.70853617      12.22226661        2      -0.03519949       0.02094949       0.00152314      -0.04586024
Cu       6.42343137       3.70855859      12.22219237        2       0.00014986       0.00005999      -0.19993658      -0.09480156
Cu       2.56933175       5.93372331      12.22226822        2       0.00010609       0.00004609      -0.02414394      -0.00056759
Cu       5.13873976       5.93371007      12.22221793        2      -0.03564587       0.02020667       0.00152848      -0.04586344
Cu       7.70811165       5.93376676      12.22227910        2       0.03559589       0.01997349       0.00146475      -0.04586560
Cu       0.00003176       0.00005032      14.34901118        1      -0.04146012      -0.02421868       0.35632750      -0.06270813
Cu       2.56930125       0.00001804      14.34916312        1       0.00036532       0.12641283       0.26105261      -0.01700481
Cu       5.13864853       0.00002580      14.34922433        1       0.04179003      -0.02406506       0.35597533      -0.06273360
Cu       1.28470809       2.22517124      14.34907163        1       0.10954518      -0.06296124       0.26120109      -0.01698580
Cu       3.85409307       2.22518508      14.34928516        1      -0.10946164      -0.06323781       0.26082494      -0.01697410
Cu       6.42349021       2.22507450      14.34904494        1      -0.00016395      -0.17846133       0.70130903       0.34832743
Cu       2.56959011       4.45037276      14.34913478        1      -0.00066122       0.04762667       0.35614329      -0.06272071
Cu       5.13896751       4.45026038      14.34907842        1      -0.15553060       0.08955828       0.70106680       0.34837338
Cu       7.70816084       4.45028686      14.34912297        1       0.15524266       0.08951855       0.70100247       0.34839201
O        6.42355366       3.70851257      15.42729066        0       0.00005600      -0.00026324      -0.42264613      -0.48786076
