29
Lattice="8.493 0.0 0.0 4.2465 6.005457892617349 0.0 0.0 0.0 20.003638595078232" Properties=species:S:1:pos:R:3:tags:I:1:forces:R:3:charge:R:1 charge=0 spin=0 energy=-2315.322702831853 free_energy=-2315.322702831853 stress="0.02227979465089478 -0.00018943182821103474 0.00020444257819022263 -0.00018943182821103474 0.0036735876717587045 -7.453002642492084e-05 0.00020444257819022263 -7.453002642492084e-05 -0.007262868231037402" dipole="0.5290851687822186 -0.13294553736321296 0.48327657529334395" pbc="T T T"
Fe       0.00000000       0.00000000       8.00000000        3      -0.06972525       0.01071908      -0.05811237      -0.00348270
Fe       2.83100000       0.00000000       8.00000000        3       0.00019538       0.00614835      -0.18531535      -0.00357477
Fe       5.66200000       0.00000000       8.00000000        3       0.06896484       0.01602736      -0.04675382      -0.00430387
Fe       1.41550000       2.00181930       8.00000000        3      -0.03770490      -0.00817425      -0.00658127      -0.00372332
Fe       4.24650000       2.00181930       8.00000000        3       0.04265591       0.01063434      -0.04591349      -0.00431906
Fe       7.07750000       2.00181930       8.00000000        3       0.00030096       0.00507816      -0.09300954      -0.00465426
Fe       2.83100000       4.00363860       8.00000000        3      -0.00096635       0.00328296      -0.18090462      -0.00333565
Fe       5.66200000       4.00363860       8.00000000        3       0.07404869      -0.02710885      -0.03887421      -0.00396362
Fe       8.49300000       4.00363860       8.00000000        3      -0.07807933       0.00422262      -0.04924343      -0.00403905
Fe       0.00000000       2.00181930      10.00181930        2       0.00925608      -0.02000380      -0.37414701      -0.00021630
Fe       2.83100000       2.00181930      10.00181930        2      -0.01206959       0.01156667      -1.03760530       0.00428078
Fe       5.66200000       2.00181930      10.00181930        2       0.04150442      -0.05005651      -0.10399577       0.00181293
Fe       1.41550000       4.00363860      10.00181930        2       0.29229230      -0.12395283      -0.91186695       0.00239685
Fe       4.24650000       4.00363860      10.00181930        2      -0.27258859      -0.13651177      -0.77174098       0.00397401
Fe       7.07750000       4.00363860      10.00181930        2       0.04245201      -0.17773414       0.25216094       0.00169502
Fe       2.83100000       6.00545789      10.00181930        2      -0.01108952       0.18751351       0.16403339       0.00084268
Fe       5.66200000       6.00545789      10.00181930        2       0.26484820       0.14188822      -0.89739134       0.00282419
Fe       8.49300000       6.00545789      10.00181930        2      -0.29170663       0.12386009      -0.89354187       0.00421024
Fe       0.28239819       0.14448347      11.85446863        1      -0.04597326      -0.24262978       0.48190332      -0.02661788
Fe       2.83520669      -0.39858603      11.85524643        1       0.03271033      -0.42845909       0.18918777      -0.00641519
Fe       5.36030756       0.15818307      11.85448413        1       0.08624635      -0.18706599       0.54635097       0.00343482
Fe       1.69185631       1.99567079      11.95831334        1       0.02705632      -0.04595831       0.70973382      -0.01286244
Fe       3.97400324       2.01030553      11.95735519        1       0.02132176       0.02365074       0.69262262      -0.00152790
Fe       7.07262559       2.00899732      12.01387572        1       0.10167611      -0.11847038       3.92121396      -0.01161461
Fe       2.83019572       4.40394869      11.85510849        1      -0.05087506       0.35193538       0.19560378      -0.00793131
Fe       5.37676556       3.87270238      11.85322702        1       0.08177441       0.15878433       0.46736315       0.00410004
Fe       8.79793012       3.84489655      11.85537756        1      -0.07729374       0.38507682       0.52506415       0.00229911
N        7.07697982       2.00238743      13.62991936        0       0.00522820      -0.00297673      -0.00257449      -0.11665892
H        8.27396278       1.34687738      12.92117065        0       0.03193948       0.00540527      -0.00693164       0.18737018
