29
Lattice="8.493 0.0 0.0 4.2465 6.005457892617349 0.0 0.0 0.0 20.003638595078232" Properties=species:S:1:pos:R:3:initial_charges:R:1:tags:I:1:forces:R:3 charge=0 spin=0 energy=-191.70642522974924 free_energy=-191.70642522974924 stress="0.05432424694299698 -0.0009870234644040465 -0.0001462619984522462 -0.0009870234644040465 0.01842464879155159 -0.001928364159539342 -0.0001462619984522462 -0.001928364159539342 0.009034025482833385" dipole="-0.14658574782887557 0.22390106989777495 0.8196287013725094" pbc="T T T"
Fe       0.00000000       0.00000000       8.00000000      -0.00294006        3       0.04451245      -0.09039082       0.56218433
Fe       2.83100000       0.00000000       8.00000000      -0.00400659        3      -0.01136971      -0.08676071       0.57398224
Fe       5.66200000       0.00000000       8.00000000      -0.00343223        3      -0.01277786      -0.12674607       0.41349480
Fe       1.41550000       2.00181930       8.00000000      -0.00366780        3      -0.02019376      -0.11795558       0.53325945
Fe       4.24650000       2.00181930       8.00000000      -0.00428736        3      -0.05657138      -0.10327812       0.59881347
Fe       7.07750000       2.00181930       8.00000000      -0.00413337        3      -0.03427442      -0.12871973       0.52864343
Fe       2.83100000       4.00363860       8.00000000      -0.00315446        3       0.03512628      -0.11286165       0.41748878
Fe       5.66200000       4.00363860       8.00000000      -0.00440123        3      -0.03056355      -0.06496486       0.57182658
Fe       8.49300000       4.00363860       8.00000000      -0.00427947        3       0.01511344      -0.11836661       0.40920284
Fe       0.00000000       2.00181930      10.00181930       0.00220118        2      -0.05371040      -0.00292475      -0.38669220
Fe       2.83100000       2.00181930      10.00181930      -0.00099838        2      -0.01784527      -0.09669421      -0.27502480
Fe       5.66200000       2.00181930      10.00181930       0.00965626        2       0.04252288       0.44068593      -0.75312752
Fe       1.41550000       4.00363860      10.00181930       0.00423689        2       0.07189946       0.14127462      -0.66273212
Fe       4.24650000       4.00363860      10.00181930      -0.00083844        2      -0.39086908      -0.00773691      -0.44482422
Fe       7.07750000       4.00363860      10.00181930       0.00520223        2       0.34511626       0.00958322      -0.48170894
Fe       2.83100000       6.00545789      10.00181930       0.00173425        2       0.00006801       0.47153336      -0.55239379
Fe       5.66200000       6.00545789      10.00181930       0.00006672        2      -0.06770389      -0.29706690      -0.33686903
Fe       8.49300000       6.00545789      10.00181930       0.00432289        2       0.14458565       0.28139478      -0.71473753
Fe      -0.27703122      -0.60847941      11.86681778      -0.00615588        1      -0.00638769       0.00390186       0.00210515
Fe       3.06319403      -0.58071841      11.84253336       0.00353132        1       0.00378803      -0.00871675      -0.01145646
Fe       5.71653981      -0.62357432      11.83951343       0.00712572        1      -0.01325960      -0.00314397      -0.00159894
Fe       1.21945756       1.28522857      11.87013081      -0.00575928        1       0.00706037       0.00306154      -0.00103772
Fe       4.25199500       1.44632878      11.88206537       0.01984897        1      -0.02489037       0.00195514      -0.00574648
Fe       7.01724750       1.47190409      11.90989861       0.04087758        1       0.00818807       0.01487763       0.00218384
Fe       2.69004408       3.32475009      11.89690470      -0.02422671        1      -0.00118698       0.00050279      -0.00202913
Fe       5.67538366       3.71825034      11.84872311       0.03810631        1       0.01209357      -0.00326098       0.00743329
Fe       8.66194088       3.41060789      11.84326475       0.01163194        1       0.00091877       0.00331514       0.00058072
O        5.59706258       2.28553238      13.08799154      -0.37981677        0       0.01661946      -0.00108283       0.02514565
H        4.41149172       2.68019935      13.11016777       0.30355575        0      -0.00600872      -0.00141454      -0.01636577
