29
Lattice="8.493 0.0 0.0 4.2465 6.005457892617349 0.0 0.0 0.0 20.003638595078232" Properties=species:S:1:pos:R:3:initial_charges:R:1:tags:I:1:forces:R:3 charge=0 spin=0 energy=-193.52229626142298 free_energy=-193.52229626142298 stress="0.051668863743543625 -8.024289854802191e-05 2.7870275516761467e-05 -8.024289854802191e-05 0.02089660055935383 0.002082389546558261 2.7870275516761467e-05 0.002082389546558261 0.009070911444723606" dipole="-0.16158142754525878 0.26642694611064016 1.2753430352844857" pbc="T T T"
Fe       0.00000000       0.00000000       8.00000000      -0.00576145        3      -0.03189464       0.10013181       0.48685062
Fe       2.83100000       0.00000000       8.00000000      -0.00575848        3       0.02149055       0.10031254       0.45094168
Fe       5.66200000       0.00000000       8.00000000      -0.00481403        3       0.01319138       0.08804946       0.47709113
Fe       1.41550000       2.00181930       8.00000000      -0.00597460        3       0.02255638       0.14030690       0.41248471
Fe       4.24650000       2.00181930       8.00000000      -0.00569578        3       0.05661393       0.07818460       0.60435379
Fe       7.07750000       2.00181930       8.00000000      -0.00567128        3      -0.06602698       0.05738234       0.61177379
Fe       2.83100000       4.00363860       8.00000000      -0.00547057        3       0.04836708       0.13311693       0.44726822
Fe       5.66200000       4.00363860       8.00000000      -0.00570587        3      -0.00356098       0.10640635       0.65924591
Fe       8.49300000       4.00363860       8.00000000      -0.00547233        3      -0.05393767       0.12658279       0.45918924
Fe       0.00000000       2.00181930      10.00181930       0.00179374        2      -0.12424047      -0.32305107      -0.63819307
Fe       2.83100000       2.00181930      10.00181930       0.00183533        2       0.07878071      -0.33841264      -0.62806827
Fe       5.66200000       2.00181930      10.00181930       0.01155011        2       0.02179739       0.32680371      -0.76202589
Fe       1.41550000       4.00363860      10.00181930       0.00548381        2       0.01283429      -0.24991126      -0.60013586
Fe       4.24650000       4.00363860      10.00181930       0.00221357        2      -0.36579055       0.04540943      -0.44239771
Fe       7.07750000       4.00363860      10.00181930       0.00220074        2       0.39923036      -0.02008000      -0.41572163
Fe       2.83100000       6.00545789      10.00181930       0.00068657        2      -0.22471939       0.07888486      -0.30731487
Fe       5.66200000       6.00545789      10.00181930       0.00265991        2      -0.02821712      -0.45036924      -0.49003163
Fe       8.49300000       6.00545789      10.00181930       0.00075389        2       0.23100668       0.07930204      -0.30097371
Fe       0.03816508       0.51788572      11.81554071      -0.00791450        1       0.02839827      -0.00524731       0.00251002
Fe       2.79619352       0.51493663      11.81435422      -0.00811016        1      -0.02450827      -0.01010309       0.00423417
Fe       4.42470039      -1.36360697      11.85634664      -0.01117527        1      -0.00901974       0.00551887       0.00296261
Fe       1.42334111       2.55927083      11.84351344      -0.01692192        1      -0.00389845      -0.00390456       0.00355343
Fe       3.92659035       2.64953933      11.93421034       0.01762779        1       0.01216840      -0.00236451      -0.00277082
Fe       5.64480990       0.75128316      11.92650593       0.01605823        1       0.00072139      -0.01615355      -0.01544648
Fe       2.64735776       4.65259245      11.86375755      -0.01120995        1       0.00264904       0.00263450       0.00190894
Fe       5.66154764       4.43412148      11.88030131      -0.02806977        1       0.00107329       0.01292766      -0.04641888
Fe       7.39439073       2.64012880      11.93443979       0.01774765        1      -0.01149766      -0.00438273      -0.00524907
N        5.66133575       2.59999899      12.62916822      -0.14115918        0      -0.00590574      -0.03361975       0.03473133
H        5.64944570       3.84461650      13.37222050       0.19427378        0       0.00233840      -0.02435487      -0.00435134
