31
Lattice="8.493 0.0 0.0 4.2465 6.005457892617349 0.0 0.0 0.0 20.003638595078232" Properties=species:S:1:pos:R:3:tags:I:1:forces:R:3:charge:R:1 charge=0 spin=0 energy=-2374.665401235006 free_energy=-2374.665401235006 stress="0.026179654617520483 8.044824845836507e-05 0.000645194700589706 8.044824845836507e-05 0.002776186744425935 -0.0017183063852594376 0.000645194700589706 -0.0017183063852594376 0.002463174606154238" dipole="-0.22397337619835 -0.30714739367650923 1.9574220808083636" pbc="T T T"
Fe       0.00000000       0.00000000       8.00000000        3       0.04150867      -0.04808406       0.00211295      -0.00648590
Fe       2.83100000       0.00000000       8.00000000        3       0.01557939      -0.11220213      -0.08115005      -0.00642397
Fe       5.66200000       0.00000000       8.00000000        3      -0.01298794      -0.09623811      -0.07831930      -0.00671624
Fe       1.41550000       2.00181930       8.00000000        3      -0.03977832       0.00041565       0.09086200      -0.00646919
Fe       4.24650000       2.00181930       8.00000000        3      -0.00082824      -0.07548955      -0.14097000      -0.00670063
Fe       7.07750000       2.00181930       8.00000000        3      -0.02201992      -0.07946701      -0.06367935      -0.00521965
Fe       2.83100000       4.00363860       8.00000000        3      -0.10162990      -0.02178557      -0.05946420      -0.00709483
Fe       5.66200000       4.00363860       8.00000000        3      -0.00074517      -0.02110551      -0.03742994      -0.00582463
Fe       8.49300000       4.00363860       8.00000000        3      -0.01261469      -0.07159781      -0.13324670      -0.00552094
Fe       0.00000000       2.00181930      10.00181930        2       0.02085389      -0.23037965       0.17283403      -0.00071943
Fe       2.83100000       2.00181930      10.00181930        2       0.18790098       0.32030573      -0.34537741       0.00179309
Fe       5.66200000       2.00181930      10.00181930        2       0.11853494       0.05806843       0.01887843       0.00082413
Fe       1.41550000       4.00363860      10.00181930        2      -0.30166152      -0.23453801       0.09171629       0.00287211
Fe       4.24650000       4.00363860      10.00181930        2      -0.22842456       0.26355372      -0.11624783       0.00111878
Fe       7.07750000       4.00363860      10.00181930        2       0.33133151      -0.09050744      -0.33512754      -0.00091684
Fe       2.83100000       6.00545789      10.00181930        2      -0.37455689       0.05417184      -0.21552722      -0.00163184
Fe       5.66200000       6.00545789      10.00181930        2       0.33063553       0.04773915      -0.80482321       0.01282682
Fe       8.49300000       6.00545789      10.00181930        2       0.21992484       0.04562853      -0.28811209       0.00181750
Fe       0.03741592      -0.48914617      11.79287658        1       0.59093154       0.10219256       1.72409684       0.05062189
Fe       2.92453378      -0.61396560      11.85604292        1      -0.05005391      -0.09423429       1.74417220       0.04036091
Fe       5.54632602      -0.61842095      11.85327239        1       0.13981972      -0.18904022      -0.26603486      -0.01134318
Fe       1.66696818       1.38343146      11.84399285        1      -0.20875628      -0.10360252       1.16204652       0.04636429
Fe       4.21157470       1.43718857      11.85463923        1       0.06630572       0.24907185      -0.13114756       0.00179804
Fe       6.79451448       1.34196791      11.96079996        1      -0.10506226       0.83352194       1.90265039       0.01532008
Fe       2.82388211       3.48373599      11.82196881        1      -0.36774502      -0.10754704      -0.11679409      -0.01033864
Fe       5.58356007       3.48685678      11.80524310        1       0.46730645      -0.30198727       1.29637033       0.00047542
Fe       8.44862271       3.30647500      11.95141457        1      -0.23326421      -0.11316278       0.07999622       0.00337231
N        6.92588925       2.42819856      13.49624015        0      -0.09201629       0.06334283       0.82606291      -0.28988465
H        6.34302578       4.07047436      13.17083776        0       0.00145442      -0.00324946       0.00171028       0.30322843
H        6.81887578       2.50030161      14.51711816        0       0.08714613      -0.05823602      -0.82991668       0.24935810
O        1.56476347      -0.42631130      12.87773896        0       0.00234952       0.00092818      -0.00175005      -0.36086133
