29
Lattice="8.493 0.0 0.0 4.2465 6.005457892617349 0.0 0.0 0.0 20.003638595078232" Properties=species:S:1:pos:R:3:initial_charges:R:1:tags:I:1:forces:R:3 charge=0 spin=0 energy=-192.9253156479687 free_energy=-192.9253156479687 stress="0.052970852702856064 -0.00037302589043974876 -0.0005127234617248178 -0.00037302589043974876 0.018412651494145393 0.001988061238080263 -0.0005127234617248178 0.001988061238080263 0.008562386967241764" dipole="0.14278455033360263 -0.42901259054315194 0.6690270605179737" pbc="T T T"
Fe       0.00000000       0.00000000       8.00000000      -0.00112008        3      -0.01921992       0.09101836       0.55275601
Fe       2.83100000       0.00000000       8.00000000      -0.00060709        3      -0.01738827       0.13436547       0.41833910
Fe       5.66200000       0.00000000       8.00000000      -0.00103141        3       0.00267386       0.10447382       0.39660209
Fe       1.41550000       2.00181930       8.00000000      -0.00131690        3      -0.05940498       0.14895611       0.39815101
Fe       4.24650000       2.00181930       8.00000000      -0.00094614        3       0.01623257       0.11572498       0.46297786
Fe       7.07750000       2.00181930       8.00000000      -0.00108762        3      -0.02931375       0.05707559       0.57761252
Fe       2.83100000       4.00363860       8.00000000      -0.00144835        3       0.01399890       0.14341643       0.38807365
Fe       5.66200000       4.00363860       8.00000000      -0.00072591        3      -0.01661192       0.10431388       0.62056351
Fe       8.49300000       4.00363860       8.00000000      -0.00083234        3      -0.09301014       0.12448652       0.52362257
Fe       0.00000000       2.00181930      10.00181930       0.00202962        2      -0.01610510      -0.07002921      -0.58250612
Fe       2.83100000       2.00181930      10.00181930       0.00341182        2       0.12724128      -0.38857213      -0.60869753
Fe       5.66200000       2.00181930      10.00181930       0.00141862        2       0.04223329       0.19094108      -0.31423345
Fe       1.41550000       4.00363860      10.00181930       0.00092623        2       0.16167109      -0.30505964      -0.70136517
Fe       4.24650000       4.00363860      10.00181930       0.00026859        2      -0.05583884      -0.05205111      -0.41238415
Fe       7.07750000       4.00363860      10.00181930       0.01395444        2      -0.06375492      -0.10819235      -0.13010727
Fe       2.83100000       6.00545789      10.00181930       0.00355729        2      -0.07391559       0.16605832      -0.42112625
Fe       5.66200000       6.00545789      10.00181930       0.00089437        2      -0.17297806      -0.25952682      -0.54458553
Fe       8.49300000       6.00545789      10.00181930       0.00207740        2       0.19575974      -0.23508504      -0.60574305
Fe       0.00802750       0.55990110      11.82557860       0.02305496        1       0.01623705      -0.01209939       0.00013253
Fe       2.86144515       0.51499773      11.82272701       0.03580706        1       0.00548592       0.01061862      -0.00216051
Fe       5.45795980       0.64434946      11.86458988       0.01953787        1       0.00938453       0.01135486      -0.00215966
Fe       1.47289016       2.54693283      11.83579637       0.01302701        1      -0.00740335       0.01330911      -0.00322094
Fe       3.94711468       2.61217249      11.87504947       0.03073851        1       0.00671717       0.00692407      -0.00709635
Fe       7.11536796       2.57245807      11.91696387       0.06367925        1      -0.00783145       0.01032179      -0.00522897
Fe       2.67938592       4.68399985      11.87782961       0.01814902        1       0.00558170      -0.00366995      -0.00241624
Fe       5.49122077       4.52714479      11.92812788       0.07545694        1       0.02265809      -0.00358678       0.01531086
Fe       8.63629166       4.57651515      11.82073947       0.05114706        1       0.00084315       0.00272983      -0.00089495
O        6.82540936       2.99157400      13.65825829      -0.11771438        0      -0.01263737       0.00557099       0.01104119
O        5.72691333       3.93033593      13.64565460      -0.23230584        0       0.01869570      -0.00378736      -0.02125650
