29
Lattice="8.493 0.0 0.0 4.2465 6.005457892617349 0.0 0.0 0.0 20.003638595078232" Properties=species:S:1:pos:R:3:tags:I:1:forces:R:3:charge:R:1 charge=0 spin=0 energy=-2468.64426284804 free_energy=-2468.64426284804 stress="0.030938350144766976 -6.037941706716036e-06 -0.002533826423755198 -6.037941706716036e-06 0.00029244537669362937 0.0017482681516383899 -0.002533826423755198 0.0017482681516383899 0.00422174319567134" dipole="0.14278455033360263 -0.42901259054315194 0.6690270605179737" pbc="T T T"
Fe       0.00000000       0.00000000       8.00000000        3       0.00666845       0.06792786      -0.03107097      -0.00112008
Fe       2.83100000       0.00000000       8.00000000        3      -0.02326574       0.09295624      -0.03099936      -0.00060709
Fe       5.66200000       0.00000000       8.00000000        3       0.00280798       0.12543878      -0.05665185      -0.00103141
Fe       1.41550000       2.00181930       8.00000000        3      -0.02373633       0.07196344      -0.09223329      -0.00131690
Fe       4.24650000       2.00181930       8.00000000        3       0.00978762       0.05398769      -0.05163786      -0.00094614
Fe       7.07750000       2.00181930       8.00000000        3       0.00504438      -0.01215027      -0.01697791      -0.00108762
Fe       2.83100000       4.00363860       8.00000000        3       0.00874290       0.15548473      -0.11902759      -0.00144835
Fe       5.66200000       4.00363860       8.00000000        3      -0.02657991      -0.00606330      -0.01674733      -0.00072591
Fe       8.49300000       4.00363860       8.00000000        3       0.01440484      -0.02050037      -0.00556127      -0.00083234
Fe       0.00000000       2.00181930      10.00181930        2       0.16822967       0.07215580       0.13226341       0.00202962
Fe       2.83100000       2.00181930      10.00181930        2       0.04261260      -0.12212643      -0.14957808       0.00341182
Fe       5.66200000       2.00181930      10.00181930        2      -0.12125345       0.22428833       0.02346228       0.00141862
Fe       1.41550000       4.00363860      10.00181930        2       0.12585551       0.11267623      -0.01207270       0.00092623
Fe       4.24650000       4.00363860      10.00181930        2      -0.03959381       0.23702816      -0.15324056       0.00026859
Fe       7.07750000       4.00363860      10.00181930        2      -0.00538224      -0.02956648      -0.11209599       0.01395444
Fe       2.83100000       6.00545789      10.00181930        2       0.00019921       0.21033665       0.02462188       0.00355729
Fe       5.66200000       6.00545789      10.00181930        2      -0.07125873      -0.41686193      -0.37805723       0.00089437
Fe       8.49300000       6.00545789      10.00181930        2       0.06130392      -0.40611706      -0.09896661       0.00207740
Fe       0.16349241       0.61026660      11.84306957        1      -0.11184695       0.19272030      -0.15703884       0.02305496
Fe       2.83400258       0.57092503      11.81790457        1       0.15218390      -0.02003958       0.17699313       0.03580706
Fe       5.46694845       0.65556782      11.86044651        1      -0.08286637      -0.25524238      -0.06062477       0.01953787
Fe       1.56718638       2.59366754      11.85310585        1       0.07430157      -0.22779321       0.15315058       0.01302701
Fe       4.05467022       2.61797855      11.85723735        1      -0.00274889      -0.10067040       0.34306914       0.03073851
Fe       7.09693754       2.43109276      11.86461279        1      -0.05765967       0.93339668       0.77132809       0.06367925
Fe       2.77975587       4.70353624      11.88412068        1      -0.19375995       0.02652740      -0.18881580       0.01814902
Fe       5.54574431       4.57375622      11.92993881        1       0.46077830      -0.81775273       2.38330411       0.07545694
Fe       8.63785540       4.56522720      11.90807070        1      -0.45118965      -0.09609947       0.84614303       0.05114706
O        7.04931503       3.98571831      12.76775633        0       0.01189035       0.00050509       0.01443668      -0.11771438
O        5.78583410       4.06478840      13.84597845        0      -0.00563911      -0.01448985      -0.00692022      -0.23230584
