31
Lattice="8.493 0.0 0.0 4.2465 6.005457892617349 0.0 0.0 0.0 20.003638595078232" Properties=species:S:1:pos:R:3:tags:I:1:forces:R:3:charge:R:1 charge=0 spin=0 energy=-2373.7874952470574 free_energy=-2373.7874952470574 stress="0.02182406296286993 -0.001993777243965115 -0.0052098194360653185 -0.001993777243965115 -0.002807365174151162 -0.005830897175016062 -0.0052098194360653185 -0.005830897175016062 -0.004756827507214939" dipole="1.7520189312318377 0.13596187019525371 2.164847534689937" pbc="T T T"
Fe       0.00000000       0.00000000       8.00000000        3       0.04455000      -0.07482409      -0.01997056      -0.00631959
Fe       2.83100000       0.00000000       8.00000000        3       0.01750272      -0.09601362      -0.14045926      -0.00668194
Fe       5.66200000       0.00000000       8.00000000        3       0.01139913      -0.11540284      -0.05057478      -0.00646840
Fe       1.41550000       2.00181930       8.00000000        3      -0.03073363      -0.06246528      -0.00291265      -0.00662229
Fe       4.24650000       2.00181930       8.00000000        3      -0.08078902       0.00573261      -0.07427867      -0.00727194
Fe       7.07750000       2.00181930       8.00000000        3      -0.01942724      -0.05293136       0.00089358      -0.00572905
Fe       2.83100000       4.00363860       8.00000000        3      -0.05497597      -0.02786794      -0.01720905      -0.00762740
Fe       5.66200000       4.00363860       8.00000000        3       0.01880649      -0.05651666      -0.05091288      -0.00697044
Fe       8.49300000       4.00363860       8.00000000        3      -0.01239883      -0.03000846      -0.08998494      -0.00589251
Fe       0.00000000       2.00181930      10.00181930        2      -0.01388042      -0.39439008      -0.37791204      -0.00222212
Fe       2.83100000       2.00181930      10.00181930        2       0.28757938       0.32402182      -1.24278877       0.00867832
Fe       5.66200000       2.00181930      10.00181930        2       0.08469534      -0.05928260      -0.16766675      -0.00012790
Fe       1.41550000       4.00363860      10.00181930        2      -0.20171421      -0.21088459       0.09781426       0.00058825
Fe       4.24650000       4.00363860      10.00181930        2      -0.00357995       0.23047289       0.08324650      -0.00008090
Fe       7.07750000       4.00363860      10.00181930        2       0.13097796      -0.13246533       0.31617183       0.00063630
Fe       2.83100000       6.00545789      10.00181930        2      -0.31963494       0.22380462      -0.13300735       0.00034407
Fe       5.66200000       6.00545789      10.00181930        2       0.09645407      -0.06837396      -0.50636887      -0.00172386
Fe       8.49300000       6.00545789      10.00181930        2       0.00233069       0.16597150      -0.08059834       0.00372855
Fe       0.03741592      -0.48914617      11.79287658        1       0.01273879      -0.22275511      -0.11288995       0.00036847
Fe       2.92453378      -0.61396560      11.85604292        1       0.52893157      -0.78352849      -0.16888277       0.00776797
Fe       5.54632602      -0.61842095      11.85327239        1      -0.19285383       0.08190250      -0.26602635      -0.01018333
Fe       1.66696818       1.38343146      11.84399285        1      -4.88673684      -3.08968359      -3.41103545       0.03947764
Fe       4.21157470       1.43718857      11.85463923        1      -0.11527753      -0.10831732       0.38180733       0.03455838
Fe       6.79451448       1.34196791      11.96079996        1       0.27477412       0.61926687       2.42833744       0.00764826
Fe       2.82388211       3.48373599      11.82196881        1      -0.00580750       0.07742675       1.04118737       0.03806468
Fe       5.58356007       3.48685678      11.80524310        1       0.39552505       0.26377590       0.04903613       0.00897028
Fe       8.44862271       3.30647500      11.95141457        1      -0.67874052      -0.33032068       0.86476907      -0.00495523
N        7.53454421       2.00361619      13.49857686        0       0.03044234       0.02883190       0.80119966      -0.27961423
H        9.28442333       2.01108849      13.18498194        0       0.00000650       0.00045327       0.00010383       0.27963544
H        7.57549566       2.04202314      14.52604073        0      -0.03194726      -0.02994710      -0.79990691       0.25088114
O        2.39751275       2.01964454      12.90899127        0       0.00035884      -0.00007293      -0.00058543      -0.32285661
