30
Lattice="8.493 0.0 0.0 4.2465 6.005457892617349 0.0 0.0 0.0 20.003638595078232" Properties=species:S:1:pos:R:3:tags:I:1:forces:R:3 charge=0 spin=0 energy=-195.0208044816734 free_energy=-195.0208044816734 stress="0.047213148325681686 -0.0001772760006133467 8.139530837070197e-05 -0.0001772760006133467 0.03315461799502373 -1.2418585129125859e-06 8.139530837070197e-05 -1.2418585129125859e-06 0.011949818581342697" pbc="T T T"
Fe       0.00000000       0.00000000       8.00000000        3       0.03870376      -0.01248843       0.49995044
Fe       2.83100000       0.00000000       8.00000000        3      -0.00324829       0.01122205       0.53066540
Fe       5.66200000       0.00000000       8.00000000        3      -0.04708609      -0.03979406       0.47772396
Fe       1.41550000       2.00181930       8.00000000        3      -0.13604231       0.01137963       0.68663019
Fe       4.24650000       2.00181930       8.00000000        3       0.13951543      -0.01139759       0.68740624
Fe       7.07750000       2.00181930       8.00000000        3       0.00112013       0.00034532       0.66498673
Fe       2.83100000       4.00363860       8.00000000        3       0.00316089      -0.01145047       0.53072023
Fe       5.66200000       4.00363860       8.00000000        3      -0.03967900       0.01269048       0.49953899
Fe       8.49300000       4.00363860       8.00000000        3       0.04575105       0.03952486       0.47893596
Fe       0.00000000       2.00181930      10.00181930        2      -0.56685120       0.01102741       0.05605707
Fe       2.83100000       2.00181930      10.00181930        2      -0.00050245      -0.00134889      -0.79597145
Fe       5.66200000       2.00181930      10.00181930        2       0.56589168      -0.01165007       0.07892613
Fe       1.41550000       4.00363860      10.00181930        2      -0.00773335      -0.09012920      -0.56733286
Fe       4.24650000       4.00363860      10.00181930        2      -0.02191646      -0.06023021      -0.54794437
Fe       7.07750000       4.00363860      10.00181930        2      -0.00104077       0.18122694      -0.78015774
Fe       2.83100000       6.00545789      10.00181930        2       0.00164709      -0.17943090      -0.78093135
Fe       5.66200000       6.00545789      10.00181930        2       0.02429029       0.06937319      -0.55171835
Fe       8.49300000       6.00545789      10.00181930        2       0.00980726       0.08256313      -0.56732923
Fe       0.00852574       0.00955681      11.83691105        1      -0.08732571       0.19617090      -0.15956856
Fe       2.83136674      -0.00142563      11.86636340        1       0.01048787      -0.10386185      -0.02998189
Fe       5.65438715       0.01454959      11.84152151        1       0.07840196       0.22245352      -0.14458506
Fe       1.44598738       2.00086207      11.85534656        1       0.18835206      -0.01492235      -0.02443322
Fe       4.21609523       2.00301909      11.85588076        1      -0.19650726       0.01663326      -0.03168138
Fe       7.08943864       2.00102313      12.27294102        1       0.04530113      -0.00376071       0.48916069
Fe       2.83053258       4.00509994      11.86632434        1      -0.01607561       0.10456604      -0.03047714
Fe       5.65423987       3.99053242      11.83622120        1       0.09432514      -0.21969087      -0.15530629
Fe       8.50039710       3.99216259      11.84235565        1      -0.07710747      -0.20196399      -0.15095636
N        7.10068278       2.00047540      14.06825976        0      -0.04891118       0.00431706       0.23025186
H        6.27002335       2.06051866      14.66835577        0      -0.31774428       0.00708217      -0.25195682
H        7.90294982       1.94308247      14.70772264        0       0.32101557      -0.00845638      -0.34062189
