29
Lattice="8.493 0.0 0.0 4.2465 6.005457892617349 0.0 0.0 0.0 20.003638595078232" Properties=species:S:1:pos:R:3:tags:I:1:forces:R:3:charge:R:1 charge=0 spin=0 energy=-2302.3726128093977 free_energy=-2302.3726128093977 stress="0.030135635056744027 0.0006278422070435369 -0.0003647345298906965 0.0006278422070435369 0.00494831357760546 0.0017265484082300217 -0.0003647345298906965 0.0017265484082300217 -0.0005967874060679803" dipole="-0.03852833672083122 -0.20142606939452692 1.2302515927986277" pbc="T T T"
Fe       0.00000000       0.00000000       8.00000000        3      -0.03937514       0.04048211      -0.02987875      -0.00534764
Fe       2.83100000       0.00000000       8.00000000        3       0.03709183       0.03516626      -0.04218770      -0.00565825
Fe       5.66200000       0.00000000       8.00000000        3       0.01050667       0.09048987      -0.06520144      -0.00413978
Fe       1.41550000       2.00181930       8.00000000        3       0.02816181       0.02070981      -0.12414419      -0.00553275
Fe       4.24650000       2.00181930       8.00000000        3       0.05585439       0.02141715       0.08450167      -0.00516926
Fe       7.07750000       2.00181930       8.00000000        3      -0.04385578       0.05804796       0.02609748      -0.00435928
Fe       2.83100000       4.00363860       8.00000000        3       0.00625986       0.07585951      -0.04863305      -0.00469987
Fe       5.66200000       4.00363860       8.00000000        3       0.00940596       0.04035094       0.03961534      -0.00546966
Fe       8.49300000       4.00363860       8.00000000        3      -0.00984740       0.08747878      -0.03557139      -0.00492364
Fe       0.00000000       2.00181930      10.00181930        2      -0.03156118      -0.11710165      -0.24031838      -0.00008075
Fe       2.83100000       2.00181930      10.00181930        2       0.01479199      -0.13997204       0.01105495       0.00264343
Fe       5.66200000       2.00181930      10.00181930        2      -0.02630178       0.49511802      -0.74233866       0.00860128
Fe       1.41550000       4.00363860      10.00181930        2       0.05320511      -0.17697975      -0.18513421       0.00454486
Fe       4.24650000       4.00363860      10.00181930        2      -0.27670328      -0.06933429      -0.01761647       0.00140664
Fe       7.07750000       4.00363860      10.00181930        2       0.25032531      -0.16285257      -0.06636047       0.00154229
Fe       2.83100000       6.00545789      10.00181930        2      -0.20861142       0.28513085      -0.20619179       0.00117991
Fe       5.66200000       6.00545789      10.00181930        2      -0.06371565      -0.41588977       0.21061191       0.00236942
Fe       8.49300000       6.00545789      10.00181930        2       0.15323155       0.31848295      -0.14090155       0.00101619
Fe       0.05290690       0.52694155      11.82678456        1       0.07919638      -0.06572928       0.05039125      -0.01766412
Fe       2.79235380       0.51329705      11.82584007        1      -0.08623114       0.06377973      -0.03155786      -0.00343590
Fe       4.41090264      -1.33100437      11.87130206        1       0.34810632      -0.14623119      -0.08925400      -0.00612781
Fe       1.41264464       2.57357503      11.84610593        1       0.05790316       0.10419830       0.09771660      -0.01336368
Fe       3.93208151       2.68174822      11.94033034        1       1.14784032      -0.23618167       0.80000398       0.01878295
Fe       5.65622153       0.74946018      11.92462848        1      -0.02696714       1.01224900       1.43581544      -0.00956921
Fe       2.67202044       4.67320101      11.87027352        1      -0.31997768      -0.26575164      -0.10906156      -0.01163173
Fe       5.65880527       4.38687761      11.83349760        1       0.06154370      -0.75351432       0.87765172       0.01933520
Fe       7.38372788       2.68139794      11.93281524        1      -1.51811221      -0.25876018       1.55085093       0.01400973
N        5.79195909       2.48492005      12.82280610        0      -0.01024729      -0.00024592       0.00112720      -0.12413112
H        6.82055745       1.03704418      12.85635669        0      -0.00505769      -0.00306430      -0.00832127       0.15587255
