42
Lattice="7.708127040155146 0.0 0.0 3.854063520077573 6.675433832372109 0.0 0.0 0.0 22.29365937364323" Properties=species:S:1:pos:R:3:initial_charges:R:1:tags:I:1:forces:R:3 energy=-4706.896421566089 free_energy=-4706.896421566089 stress="-0.013579809018782535 3.3366162284105606e-06 1.043130764342294e-06 3.3366162284105606e-06 -0.013598871572115364 -1.5831229617647845e-07 1.043130764342294e-06 -1.5831229617647845e-07 -0.015275665386828617" dipole="0.7648917505907833 0.4420867286932643 1.1153635962031965" pbc="T T F"
Cu      -0.00000000      -0.00000000       8.00000000       0.00870408        4      -0.01598430      -0.01212584      -0.27716266
Cu       2.56937568       0.00000000       8.00000000       0.00869374        4       0.01850543      -0.00779493      -0.27721704
Cu       5.13875136       0.00000000       8.00000000      -0.00511227        4      -0.00251120      -0.03665627      -0.32112953
Cu       1.28468784       2.22514461       8.00000000       0.00869076        4      -0.00247772       0.01989806      -0.27717478
Cu       3.85406352       2.22514461       8.00000000      -0.00914921        4       0.04578656       0.02362003      -0.27318170
Cu       6.42343920       2.22514461       8.00000000      -0.00911867        4      -0.04332049       0.02787772      -0.27311709
Cu       2.56937568       4.45028922       8.00000000      -0.00514348        4      -0.03044168       0.02043381      -0.32114744
Cu       5.13875136       4.45028922       8.00000000      -0.00916849        4      -0.00255443      -0.05146907      -0.27320621
Cu       7.70812704       4.45028922       8.00000000      -0.00510481        4       0.03297182       0.01621453      -0.32112425
Cu       1.28468784       0.74171487      10.09788646      -0.02555562        3       0.00003586       0.00005464      -0.00172454
Cu       3.85406352       0.74171487      10.09788646      -0.00423052        3      -0.01494602      -0.08679593      -0.06715075
Cu       6.42343920       0.74171487      10.09788646      -0.00324406        3       0.01486269      -0.08670284      -0.06375217
Cu       2.56937568       2.96685948      10.09788646      -0.00329286        3      -0.08258542       0.03044181      -0.06366227
Cu       5.13875136       2.96685948      10.09788646       0.05028682        3      -0.00003580       0.00000311      -0.19939300
Cu       7.70812704       2.96685948      10.09788646      -0.00420216        3       0.08269911       0.03044920      -0.06726145
Cu       3.85406352       5.19200409      10.09788646      -0.00424736        3      -0.06767839       0.05624665      -0.06713480
Cu       6.42343920       5.19200409      10.09788646      -0.00327360        3       0.06768115       0.05629750      -0.06372885
Cu       8.99281488       5.19200409      10.09788646      -0.01610366        3      -0.00004361       0.00000377       0.02845002
Cu      -0.00001456       1.48341895      12.22216237       0.00119232        2       0.01243424      -0.00381273       0.10871572
Cu       2.56938632       1.48343972      12.22228812       0.00117923        2      -0.00972871      -0.00869652       0.10840871
Cu       5.13868200       1.48341490      12.22229490      -0.04954311        2      -0.00210877       0.01133194       0.02905402
Cu       1.28472730       3.70860469      12.22229670       0.00743522        2      -0.00241773      -0.03638305       0.07278556
Cu       3.85404919       3.70853617      12.22226661      -0.04954365        2       0.01104115      -0.00334239       0.02907979
Cu       6.42343137       3.70855859      12.22219237      -0.04954618        2      -0.00843694      -0.00763496       0.02919312
Cu       2.56933175       5.93372331      12.22226822       0.00743125        2       0.03268621       0.01619788       0.07284764
Cu       5.13873976       5.93371007      12.22221793       0.00116358        2      -0.00280675       0.01256915       0.10850113
Cu       7.70811165       5.93376676      12.22227910       0.00743887        2      -0.03037998       0.01980633       0.07295055
Cu       0.00003176       0.00005032      14.34901118      -0.06429455        1      -0.00527022      -0.00916032       0.36667569
Cu       2.56930125       0.00001804      14.34916312      -0.06427562        1       0.01054980      -0.00028368       0.36644927
Cu       5.13864853       0.00002580      14.34922433      -0.03416060        1      -0.00022804      -0.23892061       0.26409931
Cu       1.28470809       2.22517124      14.34907163      -0.06425578        1      -0.00452273       0.00915278       0.36652751
Cu       3.85409307       2.22518508      14.34928516       0.18916213        1      -0.26352919      -0.13899445       0.21711793
Cu       6.42349021       2.22507450      14.34904494       0.18938041        1       0.25215879      -0.15869884       0.21846571
Cu       2.56959011       4.45037276      14.34913478      -0.03418493        1      -0.20716305       0.11968253       0.26414337
Cu       5.13896751       4.45026038      14.34907842       0.18921967        1       0.01084581       0.29783334       0.21688454
Cu       7.70816084       4.45028686      14.34912297      -0.03417806        1       0.20736968       0.11900797       0.26417987
O        5.13922321       2.96677365      15.76076439      -0.43609829        0       0.00065206       0.00007938       0.00321800
C        5.13790985       2.96832204      17.18181307       0.17559737        0      -0.00507468       0.00186002      -0.00161118
H        6.15055036       2.79163149      17.55712419       0.04715215        0      -0.00591268       0.00400036      -0.00082288
H        4.78426730       3.93446402      17.55400742       0.04713790        0      -0.00330491       0.00330831       0.00219068
H        4.47611282       2.18126799      17.55584140       0.04716208        0       0.01318307      -0.00889838       0.00076448
H        5.18881181       2.27514109      15.31456573       0.04218413        0      -0.01348769      -0.00785787       0.03055071
