42
Lattice="7.708127040155146 0.0 0.0 3.854063520077573 6.675433832372109 0.0 0.0 0.0 22.29365937364323" Properties=species:S:1:pos:R:3:tags:I:1:forces:R:3:charge:R:1 energy=-4721.521379919364 free_energy=-4721.521379919364 stress="-0.012914644523395597 8.631252392489854e-05 3.3392513077203785e-05 8.631252392489854e-05 -0.013883481434409532 5.0077207315381884e-05 3.3392513077203785e-05 5.0077207315381884e-05 -0.015033471861324765" dipole="0.9425472266170566 0.08868754663671931 1.7399113482341526" pbc="T T F"
Cu      -0.00000000      -0.00000000       8.00000000        4      -0.04807623      -0.02300121      -0.32066362       0.00483660
Cu       2.56937568       0.00000000       8.00000000        4       0.03154265      -0.04605150      -0.31330643       0.00564138
Cu       5.13875136       0.00000000       8.00000000        4       0.01501820      -0.05909028      -0.33844356      -0.01980356
Cu       1.28468784       2.22514461       8.00000000        4       0.00347937       0.06198559      -0.31949745      -0.01077627
Cu       3.85406352       2.22514461       8.00000000        4      -0.02901312       0.03779445      -0.28916874      -0.00558340
Cu       6.42343920       2.22514461       8.00000000        4       0.02411844       0.01091373      -0.29285872      -0.00726686
Cu       2.56937568       4.45028922       8.00000000        4      -0.02472564      -0.00374302      -0.35586182      -0.01660128
Cu       5.13875136       4.45028922       8.00000000        4       0.00582186      -0.00058710      -0.31773362      -0.01406487
Cu       7.70812704       4.45028922       8.00000000        4       0.01732624       0.01140534      -0.35161329      -0.01691552
Cu       1.28468784       0.74171487      10.09788646        3       0.00005971       0.04344066       0.00162043      -0.00145533
Cu       3.85406352       0.74171487      10.09788646        3       0.02917038      -0.04912147      -0.04572541       0.00397125
Cu       6.42343920       0.74171487      10.09788646        3      -0.02582037      -0.05113890      -0.05472763       0.00259274
Cu       2.56937568       2.96685948      10.09788646        3      -0.03673125       0.01263247      -0.03035326       0.00573247
Cu       5.13875136       2.96685948      10.09788646        3      -0.00629777       0.03600882      -0.07241910       0.03509162
Cu       7.70812704       2.96685948      10.09788646        3       0.04692794       0.01123584      -0.02937408       0.00811149
Cu       3.85406352       5.19200409      10.09788646        3      -0.02312725      -0.01060444      -0.00095026      -0.00291027
Cu       6.42343920       5.19200409      10.09788646        3       0.02696207      -0.00531448      -0.01416811      -0.00110446
Cu       8.99281488       5.19200409      10.09788646        3      -0.00003139       0.03940439       0.03630278      -0.00062958
Cu      -0.00001456       1.48341895      12.22216237        2       0.04462061      -0.00018658       0.11759780       0.00481304
Cu       2.56938632       1.48343972      12.22228812        2      -0.04201449       0.00995719       0.13710784       0.00517276
Cu       5.13868200       1.48341490      12.22229490        2       0.00596852      -0.07017366       0.12741952       0.00257239
Cu       1.28472730       3.70860469      12.22229670        2       0.00206393      -0.03184835       0.04559379       0.00711879
Cu       3.85404919       3.70853617      12.22226661        2      -0.02247650       0.04041249       0.12950398      -0.01564557
Cu       6.42343137       3.70855859      12.22219237        2       0.02047679       0.06129397       0.11311692      -0.01816963
Cu       2.56933175       5.93372331      12.22226822        2       0.00025315      -0.00560318       0.05275578       0.00881996
Cu       5.13873976       5.93371007      12.22221793        2       0.00744779      -0.00857814       0.04938593       0.01834910
Cu       7.70811165       5.93376676      12.22227910        2      -0.00924104      -0.01611425       0.06798534       0.00577074
Cu       0.00003176       0.00005032      14.34901118        1       0.03289787      -0.11516696       0.30883871      -0.06997045
Cu       2.56930125       0.00001804      14.34916312        1      -0.03479278      -0.12716464       0.29661764      -0.06033408
Cu       5.13864853       0.00002580      14.34922433        1      -0.01131619      -0.37711485       0.09915911      -0.05414458
Cu       1.28470809       2.22517124      14.34907163        1       0.00766070       0.01707211       0.29260021      -0.06812668
Cu       3.85409307       2.22518508      14.34928516        1      -0.17346351      -0.03874425       0.31029335       0.05715410
Cu       6.42349021       2.22507450      14.34904494        1       0.18385250       0.03596983       0.28273023       0.06092188
Cu       2.56959011       4.45037276      14.34913478        1      -0.08198267       0.12070790       0.30021001      -0.04674826
Cu       5.13896751       4.45026038      14.34907842        1       0.00017329       0.36330345       0.08922063      -0.02062989
Cu       7.70816084       4.45028686      14.34912297        1       0.07944945       0.14431486       0.29683075      -0.03931928
O        5.20269488       2.23949928      16.37582908        0      -0.01346213      -0.00739623       0.00331689      -0.45378476
C        5.03795550       3.16427916      17.45327524        0      -0.00522750      -0.01132043       0.03626486       0.17322194
H        5.99159487       3.33652307      17.96168312        0      -0.00107058      -0.03368020      -0.00928258       0.04360653
H        4.67882871       4.10312902      17.02733719        0       0.01040002       0.02538276      -0.00967336       0.06743978
H        4.29751493       2.78157469      18.16292525        0       0.02193376       0.02018579      -0.01861954       0.04056620
H        5.39724331       1.36472498      16.73786504        0      -0.02875485      -0.01167753      -0.01003191       0.38247982
