42
Lattice="7.708127040155146 0.0 0.0 3.854063520077573 6.675433832372109 0.0 0.0 0.0 22.29365937364323" Properties=species:S:1:pos:R:3:tags:I:1:forces:R:3:charge:R:1 energy=-4720.8809934629635 free_energy=-4720.8809934629635 stress="-0.015167568085858524 -1.5576879207746935e-05 8.49850329954224e-05 -1.5576879207746935e-05 -0.014676804990621363 -6.520621887124201e-05 8.49850329954224e-05 -6.520621887124201e-05 -0.019711769279247202" dipole="0.9746144272740318 0.5979000930399053 1.690585358928035" pbc="T T F"
Cu      -0.00000000      -0.00000000       8.00000000        4      -0.07290978      -0.01823240      -0.30121098       0.00228816
Cu       2.56937568       0.00000000       8.00000000        4       0.07695156      -0.01797949      -0.29790293       0.00205088
Cu       5.13875136       0.00000000       8.00000000        4      -0.00371083      -0.02724760      -0.38750855      -0.02363227
Cu       1.28468784       2.22514461       8.00000000        4      -0.00747300       0.04068462      -0.30406495       0.00497914
Cu       3.85406352       2.22514461       8.00000000        4       0.03669332      -0.02621956      -0.27284312      -0.00147557
Cu       6.42343920       2.22514461       8.00000000        4      -0.02890797      -0.01888271      -0.27679051      -0.00093289
Cu       2.56937568       4.45028922       8.00000000        4      -0.04229072       0.04759168      -0.35334669      -0.01480964
Cu       5.13875136       4.45028922       8.00000000        4       0.00059066      -0.02326517      -0.25304220      -0.00856840
Cu       7.70812704       4.45028922       8.00000000        4       0.04185922       0.04038062      -0.35577295      -0.01589349
Cu       1.28468784       0.74171487      10.09788646        3       0.00040432       0.01059341       0.03177334      -0.00424003
Cu       3.85406352       0.74171487      10.09788646        3      -0.02098537      -0.12217094      -0.03930354      -0.00716189
Cu       6.42343920       0.74171487      10.09788646        3       0.02001636      -0.12511520      -0.03482789      -0.00838929
Cu       2.56937568       2.96685948      10.09788646        3      -0.12124488       0.05545351      -0.03946662      -0.00166104
Cu       5.13875136       2.96685948      10.09788646        3      -0.00366172       0.02567861      -0.17516984       0.05142045
Cu       7.70812704       2.96685948      10.09788646        3       0.12416906       0.05426937      -0.04065127      -0.00347983
Cu       3.85406352       5.19200409      10.09788646        3      -0.09179886       0.05850312      -0.05255858       0.00827445
Cu       6.42343920       5.19200409      10.09788646        3       0.08919660       0.06099290      -0.05004499       0.00896617
Cu       8.99281488       5.19200409      10.09788646        3       0.00179483      -0.01227780       0.08748198      -0.01305158
Cu      -0.00001456       1.48341895      12.22216237        2       0.03720793      -0.03512133       0.03129718       0.01430492
Cu       2.56938632       1.48343972      12.22228812        2      -0.03300043      -0.04334997       0.03917205       0.01376352
Cu       5.13868200       1.48341490      12.22229490        2      -0.00203811      -0.04682380      -0.00060495      -0.03473344
Cu       1.28472730       3.70860469      12.22229670        2      -0.00566008      -0.05256528       0.06426691      -0.00035195
Cu       3.85404919       3.70853617      12.22226661        2      -0.00682436       0.02320194       0.05125866      -0.02128875
Cu       6.42343137       3.70855859      12.22219237        2       0.01362273       0.02086030       0.04603439      -0.02165701
Cu       2.56933175       5.93372331      12.22226822        2       0.04561647       0.04141189       0.02902249       0.01910592
Cu       5.13873976       5.93371007      12.22221793        2       0.00168483       0.05388519       0.05303706      -0.01290296
Cu       7.70811165       5.93376676      12.22227910        2      -0.04607417       0.04256788       0.02501972       0.01774640
Cu       0.00003176       0.00005032      14.34901118        1      -0.05492396       0.02337237       0.36397445      -0.07921248
Cu       2.56930125       0.00001804      14.34916312        1       0.05518545       0.02414742       0.36113269      -0.07915591
Cu       5.13864853       0.00002580      14.34922433        1       0.00313383      -0.30375074       0.33337432      -0.11422809
Cu       1.28470809       2.22517124      14.34907163        1      -0.01646478       0.05324079       0.37573820      -0.07730757
Cu       3.85409307       2.22518508      14.34928516        1      -0.89224398      -0.32781173      -0.35567042       0.03519420
Cu       6.42349021       2.22507450      14.34904494        1       0.93513370      -0.33274185      -0.40367490       0.02064750
Cu       2.56959011       4.45037276      14.34913478        1      -0.30390837       0.14585931       0.24552597      -0.03210014
Cu       5.13896751       4.45026038      14.34907842        1       0.01616695       0.63038777      -0.17556586       0.12308376
Cu       7.70816084       4.45028686      14.34912297        1       0.29731455       0.13198851       0.25577718      -0.03422208
O        5.11407888       3.06409310      15.88362947        0      -0.03813222      -0.07045539       0.20762182      -0.41904295
C        5.13751699       2.98003347      17.29400048        0      -0.01092855       0.06044062       0.30074818       0.16339263
H        6.16266288       2.78667008      17.61400537        0      -0.00818447       0.01102014       0.24403739       0.05500578
H        4.78305136       3.94603517      17.64459209        0       0.01393505       0.00240471       0.31788167       0.07109241
H        4.46869842       2.17350782      17.59668810        0      -0.00991438       0.01804377       0.26093869       0.05196860
H        5.17192831       2.15361213      15.49827563        0       0.01060356      -0.07296947       0.44490739       0.36621436
