31
Lattice="8.493 0.0 0.0 4.2465 6.005457892617349 0.0 0.0 0.0 20.003638595078232" Properties=species:S:1:pos:R:3:tags:I:1:forces:R:3:charge:R:1 charge=0 spin=0 energy=-2455.226922353436 free_energy=-2455.226922353436 stress="0.02594353629199979 -0.0003732980987487791 -0.0016774828105099206 -0.0003732980987487791 -0.0021872156226069367 0.0008767372627882332 -0.0016774828105099206 0.0008767372627882332 -0.003922979160546198" dipole="-0.6719759940296722 -0.00829469239689093 2.0267125310941347" pbc="T T T"
Fe       0.00000000       0.00000000       8.00000000        3       0.03870798      -0.07994128       0.07656866      -0.00614704
Fe       2.83100000       0.00000000       8.00000000        3       0.00707729      -0.09605687      -0.08469620      -0.00519461
Fe       5.66200000       0.00000000       8.00000000        3      -0.00127434      -0.09465116      -0.02507199      -0.00610020
Fe       1.41550000       2.00181930       8.00000000        3      -0.03559897      -0.07726828      -0.08820101      -0.00613901
Fe       4.24650000       2.00181930       8.00000000        3       0.00252580      -0.06191790      -0.01336145      -0.00633674
Fe       7.07750000       2.00181930       8.00000000        3      -0.01174857      -0.10366705       0.01327469      -0.00517007
Fe       2.83100000       4.00363860       8.00000000        3      -0.00572729      -0.01721999      -0.09391196      -0.00656460
Fe       5.66200000       4.00363860       8.00000000        3      -0.00660365      -0.03570903      -0.02846759      -0.00487288
Fe       8.49300000       4.00363860       8.00000000        3       0.01444532      -0.07464596      -0.06876318      -0.00529943
Fe       0.00000000       2.00181930      10.00181930        2      -0.00899431      -0.02801789      -0.31212223      -0.00150626
Fe       2.83100000       2.00181930      10.00181930        2      -0.21798564       0.17084651      -0.17682358       0.00322954
Fe       5.66200000       2.00181930      10.00181930        2      -0.03129725       0.31082620       0.00649248       0.00039973
Fe       1.41550000       4.00363860      10.00181930        2       0.16884559       0.08450527      -0.54399364       0.00341826
Fe       4.24650000       4.00363860      10.00181930        2      -0.04069224      -0.08068217       0.08971344      -0.00077759
Fe       7.07750000       4.00363860      10.00181930        2      -0.04825335      -0.50362525      -0.22716757      -0.00314426
Fe       2.83100000       6.00545789      10.00181930        2       0.14235477       0.38361725       0.41325516      -0.00109308
Fe       5.66200000       6.00545789      10.00181930        2       0.16877275      -0.05839732       0.24940979       0.00019027
Fe       8.49300000       6.00545789      10.00181930        2      -0.13071623       0.14201791      -0.20726405       0.00146973
Fe       0.01583942      -0.52786720      11.82091579        1      -0.16663720       0.09383967      -0.27827076      -0.00006186
Fe       3.03299751      -0.65326763      11.87505361        1       0.01794875       0.36166725      -0.10628387       0.00473304
Fe       5.61331729      -0.55808429      11.83280806        1       0.26770224       0.56507266      -0.07570426       0.01033571
Fe       1.56814803       1.33770393      11.87761298        1       0.35113771      -0.53614723       0.27889142       0.02528600
Fe       4.10870195       1.42616631      11.81132008        1      -0.01889649       0.12494921       0.20578631      -0.00068471
Fe       7.03048324       1.50753747      11.88862050        1      -0.60184087      -0.27525963       0.40721979       0.01303655
Fe       2.81956076       3.46059003      11.83442852        1       0.19666694       0.07314016      -0.03980191       0.02525629
Fe       5.62724927       3.43485220      11.91727878        1       0.06298994      -0.24850705       1.69466402       0.01026281
Fe       8.74910444       3.35874663      11.84773091        1      -1.02333836       1.91852890      -3.09663494       0.06070982
N        6.46530639       3.00172265      13.53761675        0      -0.16176329      -0.08796070       0.73329244      -0.33896505
H        7.86139539       2.99469907      13.39527219        0       0.00096784      -0.00042361       0.00009685       0.37465470
H        6.24829172       2.88258698      14.53622151        0       0.16023736       0.08798327      -0.73700597       0.25268950
O        9.10974552       2.99445144      13.23743546        0       0.00058173      -0.00010568       0.00179613      -0.38761457
