29
Lattice="8.493 0.0 0.0 4.2465 6.005457892617349 0.0 0.0 0.0 20.003638595078232" Properties=species:S:1:pos:R:3:tags:I:1:forces:R:3 charge=0 spin=0 energy=-191.0028708692721 free_energy=-191.0028708692721 stress="0.045946262776851654 -0.0003482046886347234 -1.6970341675914824e-05 -0.0003482046886347234 0.02989293821156025 -5.433368278318085e-05 -1.6970341675914824e-05 -5.433368278318085e-05 0.008807430043816566" pbc="T T T"
Fe       0.00000000       0.00000000       8.00000000        3      -0.05971609      -0.02441953       0.55062681
Fe       2.83100000       0.00000000       8.00000000        3       0.00135480       0.07139510       0.22946590
Fe       5.66200000       0.00000000       8.00000000        3       0.05845171      -0.05817215       0.58344972
Fe       1.41550000       2.00181930       8.00000000        3      -0.08114883       0.00803983       0.52601850
Fe       4.24650000       2.00181930       8.00000000        3       0.07773638      -0.00409357       0.52474004
Fe       7.07750000       2.00181930       8.00000000        3       0.00022009       0.00068920       0.66015846
Fe       2.83100000       4.00363860       8.00000000        3      -0.00218644      -0.06860764       0.22944720
Fe       5.66200000       4.00363860       8.00000000        3       0.06161265       0.02543383       0.55176961
Fe       8.49300000       4.00363860       8.00000000        3      -0.05662479       0.06136978       0.58221966
Fe       0.00000000       2.00181930      10.00181930        2       0.20836000       0.00567313       0.06752241
Fe       2.83100000       2.00181930      10.00181930        2      -0.00348870      -0.00389651      -1.01362205
Fe       5.66200000       2.00181930      10.00181930        2      -0.20269728      -0.02059870       0.04518396
Fe       1.41550000       4.00363860      10.00181930        2       0.19530790      -0.06799239      -1.08305347
Fe       4.24650000       4.00363860      10.00181930        2      -0.18781599      -0.08761230      -1.01600587
Fe       7.07750000       4.00363860      10.00181930        2      -0.03229443      -0.00747588       0.34425303
Fe       2.83100000       6.00545789      10.00181930        2       0.04779038      -0.00933276       0.33536440
Fe       5.66200000       6.00545789      10.00181930        2       0.16684759       0.05750349      -0.98470253
Fe       8.49300000       6.00545789      10.00181930        2      -0.19836603       0.07642905      -1.08479631
Fe       0.28239819       0.14448347      11.85446863        1       0.00468518       0.03170110      -0.02109719
Fe       2.83520669      -0.39858603      11.85524643        1       0.01491600      -0.00343205      -0.00538862
Fe       5.36030756       0.15818307      11.85448413        1       0.01137506      -0.00964652       0.00054453
Fe       1.69185631       1.99567079      11.95831334        1       0.00793877       0.02125692       0.00363424
Fe       3.97400324       2.01030553      11.95735519        1       0.00127459      -0.01259341       0.00314740
Fe       7.07262559       2.00899732      12.01387572        1      -0.00937232       0.00919600      -0.00569854
Fe       2.83019572       4.40394869      11.85510849        1      -0.01169661       0.00978422      -0.00579048
Fe       5.37676556       3.87270238      11.85322702        1      -0.00662638      -0.00772834      -0.02323251
Fe       8.79793012       3.84489655      11.85537756        1      -0.01018271       0.01003006       0.00176984
N        7.07891391       2.00305060      13.64234457        0       0.00711521      -0.00017703       0.02368802
H        7.07653665       2.00029931      14.67238669        0      -0.00276970      -0.00272305      -0.01961653
