28
Lattice="8.493 0.0 0.0 4.2465 6.005457892617349 0.0 0.0 0.0 20.003638595078232" Properties=species:S:1:pos:R:3:tags:I:1:forces:R:3 charge=0 spin=0 energy=-189.4867852078936 free_energy=-189.4867852078936 stress="0.05392313376069069 2.5639794330345467e-05 -1.003952002065489e-05 2.5639794330345467e-05 0.017592690885066986 0.0018169543473049998 -1.003952002065489e-05 0.0018169543473049998 0.008859666995704174" pbc="T T T"
Fe       0.00000000       0.00000000       8.00000000        3      -0.03177067       0.09260660       0.54143184
Fe       2.83100000       0.00000000       8.00000000        3      -0.00018521       0.13375060       0.44398755
Fe       5.66200000       0.00000000       8.00000000        3       0.01744349       0.11310645       0.51811248
Fe       1.41550000       2.00181930       8.00000000        3      -0.03210499       0.12260117       0.40255007
Fe       4.24650000       2.00181930       8.00000000        3       0.02734225       0.11426269       0.41087827
Fe       7.07750000       2.00181930       8.00000000        3       0.01891545       0.04590327       0.55135286
Fe       2.83100000       4.00363860       8.00000000        3       0.00251112       0.13094336       0.47354737
Fe       5.66200000       4.00363860       8.00000000        3       0.01178480       0.09944852       0.61853182
Fe       8.49300000       4.00363860       8.00000000        3      -0.02486478       0.10043892       0.59875661
Fe       0.00000000       2.00181930      10.00181930        2       0.14821813       0.01466397      -0.44455722
Fe       2.83100000       2.00181930      10.00181930        2       0.00494343      -0.36540833      -0.72700614
Fe       5.66200000       2.00181930      10.00181930        2      -0.16633488       0.11329585      -0.42728066
Fe       1.41550000       4.00363860      10.00181930        2       0.01397568      -0.11859789      -0.53217244
Fe       4.24650000       4.00363860      10.00181930        2       0.00597627      -0.02768228      -0.51264936
Fe       7.07750000       4.00363860      10.00181930        2      -0.00717111      -0.12170764      -0.69271135
Fe       2.83100000       6.00545789      10.00181930        2       0.01441853       0.24525222      -0.39189348
Fe       5.66200000       6.00545789      10.00181930        2      -0.11304283      -0.37117684      -0.43061066
Fe       8.49300000       6.00545789      10.00181930        2       0.11576815      -0.38276365      -0.43671083
Fe       0.16349241       0.61026660      11.84306957        1      -0.00906206       0.00615919       0.00781457
Fe       2.83400258       0.57092503      11.81790457        1       0.00141004       0.01614037      -0.01127768
Fe       5.46694845       0.65556782      11.86044651        1       0.00428311      -0.00281892       0.00640800
Fe       1.56718638       2.59366754      11.85310585        1      -0.02439771       0.01085265       0.01099605
Fe       4.05467022       2.61797855      11.85723735        1       0.02395709       0.00511971       0.01972028
Fe       7.09693754       2.43109276      11.86461279        1      -0.00751089       0.02346515       0.01774235
Fe       2.77975587       4.70353624      11.88412068        1       0.00898236      -0.00191126      -0.01032711
Fe       5.54574431       4.57375622      11.92993881        1      -0.01024652       0.00966015      -0.01643706
Fe       8.63785540       4.56522720      11.90807070        1       0.00765359       0.01414542      -0.01070731
O        7.09334074       4.01354239      12.80253345        0      -0.00089206      -0.01974935       0.02251098
