29
Lattice="8.493 0.0 0.0 4.2465 6.005457892617349 0.0 0.0 0.0 20.003638595078232" Properties=species:S:1:pos:R:3:tags:I:1:forces:R:3 charge=0 spin=0 energy=-194.7695773359469 free_energy=-194.7695773359469 stress="0.053246986120939255 -0.00018394042854197323 1.97806439246051e-05 -0.00018394042854197323 0.02233700640499592 0.0018374345963820815 1.97806439246051e-05 0.0018374345963820815 0.00892824400216341" pbc="T T T"
Fe       0.00000000       0.00000000       8.00000000        3      -0.03680782       0.09671907       0.48025978
Fe       2.83100000       0.00000000       8.00000000        3       0.03724498       0.09516739       0.45535454
Fe       5.66200000       0.00000000       8.00000000        3       0.01032912       0.07878580       0.49693125
Fe       1.41550000       2.00181930       8.00000000        3       0.01949307       0.13664639       0.42960402
Fe       4.24650000       2.00181930       8.00000000        3       0.03516695       0.09530192       0.60875857
Fe       7.07750000       2.00181930       8.00000000        3      -0.05232333       0.07347101       0.62872565
Fe       2.83100000       4.00363860       8.00000000        3       0.02096368       0.13047653       0.42537358
Fe       5.66200000       4.00363860       8.00000000        3      -0.00081450       0.10066897       0.63228047
Fe       8.49300000       4.00363860       8.00000000        3      -0.02771249       0.12513644       0.43063372
Fe       0.00000000       2.00181930      10.00181930        2      -0.09075885      -0.34576192      -0.65543413
Fe       2.83100000       2.00181930      10.00181930        2       0.03889401      -0.34990016      -0.64199626
Fe       5.66200000       2.00181930      10.00181930        2       0.03274447       0.30806074      -0.78401548
Fe       1.41550000       4.00363860      10.00181930        2       0.00109886      -0.20944786      -0.61582172
Fe       4.24650000       4.00363860      10.00181930        2      -0.37162241      -0.02747307      -0.33752128
Fe       7.07750000       4.00363860      10.00181930        2       0.39637861      -0.05635458      -0.32399493
Fe       2.83100000       6.00545789      10.00181930        2      -0.14548036       0.12999277      -0.38099939
Fe       5.66200000       6.00545789      10.00181930        2      -0.03223827      -0.49400866      -0.49856842
Fe       8.49300000       6.00545789      10.00181930        2       0.15902174       0.10611748      -0.37615260
Fe       0.05290690       0.52694155      11.82678456        1      -0.00603133       0.00029576       0.01048409
Fe       2.79235380       0.51329705      11.82584007        1       0.00029453       0.00378396       0.00590266
Fe       4.41090264      -1.33100437      11.87130206        1       0.00171913      -0.00449798      -0.01152007
Fe       1.41264464       2.57357503      11.84610593        1       0.01801994      -0.01367592       0.00340105
Fe       3.93208151       2.68174822      11.94033034        1       0.00575631       0.00066916       0.00083152
Fe       5.65622153       0.74946018      11.92462848        1       0.00171396       0.00327983       0.00341292
Fe       2.67202044       4.67320101      11.87027352        1      -0.01395400       0.00998583       0.00401806
Fe       5.65880527       4.38687761      11.83349760        1       0.00793163      -0.00446708       0.00102063
Fe       7.38372788       2.68139794      11.93281524        1       0.00096039      -0.00610707       0.01321112
N        5.65796195       2.53145780      12.82381751        0       0.00126662       0.00532384      -0.03222919
H        5.66628862       2.50490022      13.85923550        0      -0.01125407       0.01181132       0.02805004
