29
Lattice="8.493 0.0 0.0 4.2465 6.005457892617349 0.0 0.0 0.0 20.003638595078232" Properties=species:S:1:pos:R:3:tags:I:1:forces:R:3:charge:R:1 charge=0 spin=0 energy=-2455.5963365782304 free_energy=-2455.5963365782304 stress="0.0218808929886668 -0.003277325033663985 0.0009050004324976063 -0.003277325033663985 0.00919505588747594 -0.0013066369655144185 0.0009050004324976063 -0.0013066369655144185 0.0020551363594258133" dipole="-0.47749375178465947 0.6484274295097329 -0.1919189285569869" pbc="T T T"
Fe       0.00000000       0.00000000       8.00000000        3      -0.02646803      -0.03377618      -0.16317352       0.00257656
Fe       2.83100000       0.00000000       8.00000000        3      -0.03178559      -0.02506819       0.07152492       0.00209814
Fe       5.66200000       0.00000000       8.00000000        3       0.05300572      -0.06164625      -0.16590278       0.00179810
Fe       1.41550000       2.00181930       8.00000000        3      -0.10569698      -0.00574730       0.06827679       0.00206467
Fe       4.24650000       2.00181930       8.00000000        3       0.09126574       0.05850008       0.10343141       0.00162279
Fe       7.07750000       2.00181930       8.00000000        3      -0.00728705      -0.00777268      -0.11144820       0.00269352
Fe       2.83100000       4.00363860       8.00000000        3      -0.00326748      -0.02561850       0.02919199       0.00240333
Fe       5.66200000       4.00363860       8.00000000        3       0.03520881       0.02536999      -0.20539256       0.00265681
Fe       8.49300000       4.00363860       8.00000000        3      -0.04981802       0.04510959      -0.18430146       0.00205923
Fe       0.00000000       2.00181930      10.00181930        2      -0.31068191       0.05826161       0.17053234       0.00163188
Fe       2.83100000       2.00181930      10.00181930        2      -0.00061345       0.02335348      -1.66071835       0.00502674
Fe       5.66200000       2.00181930      10.00181930        2       0.29725794      -0.05263665       0.34051012       0.00277943
Fe       1.41550000       4.00363860      10.00181930        2      -0.43808907      -0.20434247      -0.06971096       0.00265344
Fe       4.24650000       4.00363860      10.00181930        2       0.45618318      -0.19933237      -0.04695462       0.00254174
Fe       7.07750000       4.00363860      10.00181930        2       0.09475643       0.58362111      -0.24651909       0.00237907
Fe       2.83100000       6.00545789      10.00181930        2      -0.02171664      -0.55222831      -0.36142270       0.00056594
Fe       5.66200000       6.00545789      10.00181930        2      -0.51869533       0.22921854      -0.03174459       0.00225183
Fe       8.49300000       6.00545789      10.00181930        2       0.43231348       0.21186296      -0.04980117       0.00292149
Fe      -0.13344440       0.38390398      11.85642765        1       0.19971106      -0.44729784       1.75371589       0.04484646
Fe       2.84677533      -0.33092509      11.75935599        1       0.08545832      -0.38144766      -0.04277250       0.02947631
Fe       5.78010585       0.38603627      11.85828382        1       0.02164236       0.05506718       0.01722091       0.03606164
Fe       1.61731286       1.97990060      11.82272608        1       0.07445417      -0.01270811       0.77375607       0.03458875
Fe       4.04470224       2.02347040      11.82271317        1       0.04323661      -0.06457157       0.75709791       0.02010463
Fe       7.07760239       2.00186617      12.82188109        1       0.29797414      -0.37898345       3.09073333       0.08844799
Fe       2.81505511       4.33442676      11.75931351        1       0.02650488       0.33022333       0.12694883       0.03920819
Fe       5.79543645       3.61959045      11.85643422        1       0.16505129       0.05700809       0.08643121       0.02902344
Fe       8.37505401       3.61767083      11.85824638        1      -0.31728714       0.08913276       0.13363792       0.02501047
O        7.25252409       1.75396926      14.40270429        0      -0.01327828      -0.00740346      -0.00517981      -0.13670810
O       -0.17776141       0.25155523      14.40419550        0       0.00441046      -0.04119427       0.01235918      -0.25278450
