42
Lattice="7.708127040155146 0.0 0.0 3.854063520077573 6.675433832372109 0.0 0.0 0.0 22.29365937364323" Properties=species:S:1:pos:R:3:tags:I:1:forces:R:3:charge:R:1 energy=-4721.520134332724 free_energy=-4721.520134332724 stress="-0.014029547374509179 -0.00035764103878483256 1.0063164346328493e-05 -0.00035764103878483256 -0.013292365733398133 -0.00011112435229432169 1.0063164346328493e-05 -0.00011112435229432169 -0.01502187843136268" dipole="0.9877294383751507 0.6178195079834193 1.6913406263743063" pbc="T T F"
Cu      -0.00000000       0.00000000       8.00000000        4      -0.07406335      -0.01605570      -0.32290562      -0.01089659
Cu       2.56937568      -0.00000000       8.00000000        4       0.06904019      -0.01385979      -0.31628122       0.00080880
Cu       5.13875136      -0.00000000       8.00000000        4       0.00747485      -0.01306945      -0.35430005      -0.01651258
Cu       1.28468784       2.22514461       8.00000000        4       0.01167540       0.04531022      -0.32697571       0.00526860
Cu       3.85406352       2.22514461       8.00000000        4      -0.01501895      -0.01165640      -0.31509596      -0.01121925
Cu       6.42343920       2.22514461       8.00000000        4       0.00551742      -0.04228455      -0.29709615      -0.00650981
Cu       2.56937568       4.45028922       8.00000000        4      -0.00946170       0.01619301      -0.35023797      -0.01513113
Cu       5.13875136       4.45028922       8.00000000        4      -0.01900417       0.00865945      -0.28251563      -0.00524644
Cu       7.70812704       4.45028922       8.00000000        4       0.03060769       0.03398546      -0.33581903      -0.01803798
Cu       1.28468784       0.74171487      10.09788646        3      -0.03183164      -0.01469173       0.01346680      -0.00010770
Cu       3.85406352       0.74171487      10.09788646        3      -0.00498810      -0.01762580      -0.01177300      -0.00316030
Cu       6.42343920       0.74171487      10.09788646        3       0.03102798      -0.04432195      -0.02278455       0.00286856
Cu       2.56937568       2.96685948      10.09788646        3       0.00072507       0.02442443      -0.01120603      -0.00812751
Cu       5.13875136       2.96685948      10.09788646        3      -0.02922237      -0.01233822      -0.07000236       0.03212568
Cu       7.70812704       2.96685948      10.09788646        3       0.02284428       0.02937456      -0.04314931       0.00082802
Cu       3.85406352       5.19200409      10.09788646        3      -0.04935477       0.02667292      -0.03284733       0.00674994
Cu       6.42343920       5.19200409      10.09788646        3       0.05535179       0.00870401      -0.06113141       0.01023460
Cu       8.99281488       5.19200409      10.09788646        3      -0.01177830      -0.01926445       0.03544391      -0.00042674
Cu      -0.00001456       1.48341895      12.22216237        2       0.00115438      -0.02440808       0.12536786       0.01457517
Cu       2.56938632       1.48343972      12.22228812        2       0.01693952      -0.00224817       0.04404305       0.01300921
Cu       5.13868200       1.48341490      12.22229490        2      -0.02756719      -0.03881731       0.10065635      -0.00620627
Cu       1.28472730       3.70860469      12.22229670        2       0.00521552      -0.00344773       0.06898359       0.00721739
Cu       3.85404919       3.70853617      12.22226661        2      -0.05695122      -0.01674765       0.12968110       0.00110427
Cu       6.42343137       3.70855859      12.22219237        2       0.06987573       0.02797906       0.11941014      -0.00654664
Cu       2.56933175       5.93372331      12.22226822        2       0.02085971       0.02239979       0.06146000       0.00450027
Cu       5.13873976       5.93371007      12.22221793        2      -0.00400565       0.02811533       0.14396390      -0.00338553
Cu       7.70811165       5.93376676      12.22227910        2      -0.01187902       0.01329864       0.07204234       0.00699255
Cu       0.00003176       0.00005032      14.34901118        1      -0.04142656       0.02088679       0.26139130      -0.06777199
Cu       2.56930125       0.00001804      14.34916312        1       0.10142603       0.10315855       0.30027931      -0.04829488
Cu       5.13864853       0.00002580      14.34922433        1      -0.03098920      -0.09661174       0.28550315      -0.04937100
Cu       1.28470809       2.22517124      14.34907163        1       0.08065646       0.01655152       0.30739663      -0.06677823
Cu       3.85409307       2.22518508      14.34928516        1      -0.30868354      -0.22748703       0.09172105      -0.03590323
Cu       6.42349021       2.22507450      14.34904494        1       0.08980778      -0.15396231       0.29179994       0.03944431
Cu       2.56959011       4.45037276      14.34913478        1      -0.14847706       0.02025977       0.24669256      -0.05685450
Cu       5.13896751       4.45026038      14.34907842        1      -0.03012749       0.16057905       0.31892531       0.07915513
Cu       7.70816084       4.45028686      14.34912297        1       0.28035379       0.13594772       0.13881758      -0.03511490
O        5.43740878       3.41002066      16.40400177        0      -0.00321199      -0.00590160      -0.00694195      -0.45786870
C        6.30982368       3.63905025      17.51223007        0      -0.00870376      -0.01091293      -0.02150455       0.17543151
H        7.20461064       4.13121552      17.12592116        0       0.01609212      -0.00096024      -0.00316702       0.06583589
H        5.82527060       4.28603496      18.24740008        0      -0.01680515       0.03453358       0.01487851       0.03960273
H        6.58678478       2.68793137      17.97607818        0       0.00167215      -0.00231656       0.00979914       0.04185170
H        4.58410862       3.08618364      16.72538945        0       0.01523330       0.01195554       0.00401133       0.38186756
