42
Lattice="7.708127040155146 0.0 0.0 3.854063520077573 6.675433832372109 0.0 0.0 0.0 22.29365937364323" Properties=species:S:1:pos:R:3:tags:I:1:forces:R:3:charge:R:1 energy=-4720.979915406249 free_energy=-4720.979915406249 stress="-0.014232756821912567 0.00039590241772288103 -2.2165445433544374e-05 0.00039590241772288103 -0.014597777662837676 3.952029612659388e-05 -2.2165445433544374e-05 3.952029612659388e-05 -0.019458208549033993" dipole="1.0697905288902774 0.6143732918113021 1.639737909984209" pbc="T T F"
Cu      -0.00000000       0.00000000       8.00000000        4      -0.07625224      -0.05174537      -0.30669837      -0.01549384
Cu       2.56937568      -0.00000000       8.00000000        4       0.04872974       0.03496368      -0.30976820       0.00982808
Cu       5.13875136      -0.00000000       8.00000000        4       0.02757240      -0.02052948      -0.35151594      -0.01440824
Cu       1.28468784       2.22514461       8.00000000        4       0.05554836       0.03502086      -0.30989616       0.00830899
Cu       3.85406352       2.22514461       8.00000000        4      -0.01414642      -0.00305342      -0.31779807      -0.00202099
Cu       6.42343920       2.22514461       8.00000000        4      -0.04177460      -0.04006238      -0.26613503      -0.00655738
Cu       2.56937568       4.45028922       8.00000000        4      -0.00224224       0.02969978      -0.35840566      -0.01478111
Cu       5.13875136       4.45028922       8.00000000        4      -0.06589338      -0.01446126      -0.27256296      -0.00678553
Cu       7.70812704       4.45028922       8.00000000        4       0.06894538       0.02971393      -0.31881851      -0.01543066
Cu       1.28468784       0.74171487      10.09788646        3      -0.05804724      -0.03981788       0.01719065      -0.00587070
Cu       3.85406352       0.74171487      10.09788646        3       0.00247293      -0.06662654      -0.02203397      -0.01286119
Cu       6.42343920       0.74171487      10.09788646        3       0.05371797      -0.07092247      -0.03204530       0.00744322
Cu       2.56937568       2.96685948      10.09788646        3      -0.05642861       0.02949983      -0.02158120      -0.01273101
Cu       5.13875136       2.96685948      10.09788646        3       0.03780335       0.02088400      -0.12673292       0.03166238
Cu       7.70812704       2.96685948      10.09788646        3       0.01880205       0.06128997      -0.06716941       0.01336460
Cu       3.85406352       5.19200409      10.09788646        3      -0.02456368       0.08954380      -0.02965487       0.00443124
Cu       6.42343920       5.19200409      10.09788646        3       0.05773091      -0.00999293      -0.05935542       0.01161133
Cu       8.99281488       5.19200409      10.09788646        3      -0.03289966      -0.01188829       0.03702600      -0.00140348
Cu      -0.00001456       1.48341895      12.22216237        2       0.00876780      -0.09811551       0.09511321      -0.00336222
Cu       2.56938632       1.48343972      12.22228812        2       0.01323413       0.01208887      -0.01174409       0.03311380
Cu       5.13868200       1.48341490      12.22229490        2      -0.03456329      -0.05380939       0.02660798      -0.01735934
Cu       1.28472730       3.70860469      12.22229670        2       0.03186611      -0.00387677       0.06066185      -0.00285927
Cu       3.85404919       3.70853617      12.22226661        2      -0.06489516      -0.00509989       0.01724903      -0.01937867
Cu       6.42343137       3.70855859      12.22219237        2       0.01362257       0.00048398       0.07479933      -0.01546677
Cu       2.56933175       5.93372331      12.22226822        2       0.03875347       0.03335440      -0.04587116       0.00611647
Cu       5.13873976       5.93371007      12.22221793        2      -0.08861647       0.05862010       0.09653786      -0.00038038
Cu       7.70811165       5.93376676      12.22227910        2       0.02550696       0.03535545       0.06908877      -0.00445855
Cu       0.00003176       0.00005032      14.34901118        1      -0.00149154      -0.02071421       0.35508780      -0.07756008
Cu       2.56930125       0.00001804      14.34916312        1       0.10070217       0.19149752       0.34387776      -0.04421500
Cu       5.13864853       0.00002580      14.34922433        1      -0.09333498      -0.16120160       0.37676111      -0.08522692
Cu       1.28470809       2.22517124      14.34907163        1       0.22984238      -0.00288803       0.34463427      -0.05070567
Cu       3.85409307       2.22518508      14.34928516        1      -0.50960768      -0.29268216       0.12706330      -0.10904856
Cu       6.42349021       2.22507450      14.34904494        1       0.54309649      -0.64755790      -0.44875061       0.11150849
Cu       2.56959011       4.45037276      14.34913478        1      -0.16780914       0.00375890       0.38586235      -0.08471263
Cu       5.13896751       4.45026038      14.34907842        1      -0.25839288       0.79735951      -0.45757748       0.08799716
Cu       7.70816084       4.45028686      14.34912297        1       0.34878490       0.20934486       0.12474884       0.01158794
O        5.85391743       3.35377673      15.94049574        0      -0.15850611      -0.10609736      -0.02135696      -0.42815487
C        5.77904059       3.33931909      17.34832338        0      -0.16942983       0.05987602       0.40417018       0.17180805
H        6.79550200       3.21626800      17.70737327        0       0.09487671       0.00949223       0.29366501       0.06591627
H        5.35044126       4.28847788      17.68241938        0       0.03921246      -0.08476460       0.21253924       0.05544418
H        5.14757278       2.49828259      17.64661240        0       0.06816105       0.03743806       0.22844425       0.04770411
H        5.02070330       2.98594944      15.55485145        0      -0.00885511       0.02662170       0.46434351       0.37338674
