28
Lattice="8.493 0.0 0.0 4.2465 6.005457892617349 0.0 0.0 0.0 20.003638595078232" Properties=species:S:1:pos:R:3:tags:I:1:forces:R:3 charge=0 spin=0 energy=-187.32183912863945 free_energy=-187.32183912863945 stress="0.04515235498547554 -0.00021265177929308265 1.8941389043902745e-06 -0.00021265177929308265 0.028358064591884613 -5.059118393546669e-06 1.8941389043902745e-06 -5.059118393546669e-06 0.008755090646445751" pbc="T T T"
Fe       0.00000000       0.00000000       8.00000000        3       0.00003400      -0.00002091       0.66980976
Fe       2.83100000       0.00000000       8.00000000        3      -0.01659718       0.00064447       0.39164519
Fe       5.66200000       0.00000000       8.00000000        3       0.01654224      -0.00070043       0.39164189
Fe       1.41550000       2.00181930       8.00000000        3      -0.15169308       0.05731064       0.65588558
Fe       4.24650000       2.00181930       8.00000000        3       0.03946419      -0.05877558       0.36360973
Fe       7.07750000       2.00181930       8.00000000        3       0.05642007       0.00446649       0.54121691
Fe       2.83100000       4.00363860       8.00000000        3       0.15163076      -0.05735700       0.65589678
Fe       5.66200000       4.00363860       8.00000000        3      -0.05642800      -0.00450630       0.54120833
Fe       8.49300000       4.00363860       8.00000000        3      -0.03937546       0.05875375       0.36343211
Fe       0.00000000       2.00181930      10.00181930        2      -0.35188049       0.03213007       0.46327835
Fe       2.83100000       2.00181930      10.00181930        2       0.48015907      -0.00713406      -0.89277786
Fe       5.66200000       2.00181930      10.00181930        2      -0.00965834      -0.02582418      -0.83506918
Fe       1.41550000       4.00363860      10.00181930        2      -0.48046660       0.00767410      -0.89281332
Fe       4.24650000       4.00363860      10.00181930        2       0.35172302      -0.03216794       0.46314991
Fe       7.07750000       4.00363860      10.00181930        2       0.01019207       0.02562279      -0.83566540
Fe       2.83100000       6.00545789      10.00181930        2      -0.72705042      -0.16352849      -0.38909715
Fe       5.66200000       6.00545789      10.00181930        2       0.72721869       0.16375335      -0.38864711
Fe       8.49300000       6.00545789      10.00181930        2      -0.00007382       0.00018807      -1.36092031
Fe      -0.00001286      -0.00009696      11.75033812        1      -0.00048907       0.00004954       0.00332645
Fe       3.07159637       0.03099151      11.91004278        1       0.00979654      -0.01154790      -0.01117594
Fe       5.42143221      -0.03111893      11.91005365        1      -0.00922120       0.01189688      -0.01145328
Fe       1.65226266       1.83399823      11.85374402        1      -0.00234265       0.00354930       0.00553145
Fe       4.20554567       2.38623638      11.86516243        1       0.00207754       0.00659843       0.01073159
Fe       6.79319282       1.77884592      11.98628905        1       0.01747741      -0.01136441       0.02117859
Fe       2.59420062       4.17122996      11.85375328        1       0.00224518      -0.00407639       0.00553222
Fe       5.94626350       4.22678979      11.98607328        1      -0.01654953       0.00606528       0.02644535
Fe       8.53396109       3.61914660      11.86517145        1      -0.00178982      -0.00647872       0.01073670
O        6.36985563       3.00251326      13.20373247        0      -0.00136547       0.00477900       0.03336164
