41
Lattice="7.708127040155146 0.0 0.0 3.854063520077573 6.675433832372109 0.0 0.0 0.0 22.29365937364323" Properties=species:S:1:pos:R:3:tags:I:1:forces:R:3:charge:R:1 energy=-4680.061551258068 free_energy=-4680.061551258068 stress="-0.016085133247291054 0.0034008978504893603 0.0003613087226047419 0.0034008978504893603 -0.012366209798575282 0.00042115314384529425 0.0003613087226047419 0.00042115314384529425 -0.01699785761276027" dipole="-0.14098226507409142 -0.4064720707689735 1.3651273837792188" pbc="T T F"
Cu       0.00000000       0.00000000       8.00000000        4      -0.01475798       0.01224678      -0.29859630      -0.01750347
Cu       2.56937568       0.00000000       8.00000000        4      -0.02863623       0.02279857      -0.31203989      -0.00405544
Cu       5.13875136       0.00000000       8.00000000        4       0.03677940       0.05181383      -0.26501818       0.01171459
Cu       1.28468784       2.22514461       8.00000000        4      -0.00154574       0.01685058      -0.30739006       0.00056242
Cu       3.85406352       2.22514461       8.00000000        4       0.00076390       0.05138126      -0.31016004      -0.00610405
Cu       6.42343920       2.22514461       8.00000000        4      -0.00679663      -0.00789250      -0.33315449      -0.02658418
Cu       2.56937568       4.45028922       8.00000000        4       0.04568221      -0.05501194      -0.29770816      -0.00787463
Cu       5.13875136       4.45028922       8.00000000        4      -0.04359325      -0.04204787      -0.31140947       0.00587763
Cu       7.70812704       4.45028922       8.00000000        4      -0.01025973      -0.06353723      -0.30947452       0.00990805
Cu       1.28468784       0.74171487      10.09788646        3       0.04192075      -0.00880523      -0.04958098       0.00899170
Cu       3.85406352       0.74171487      10.09788646        3      -0.02520615      -0.03946542      -0.01889840      -0.00347640
Cu       6.42343920       0.74171487      10.09788646        3       0.00236962       0.02248878      -0.12899281       0.03540534
Cu       2.56937568       2.96685948      10.09788646        3      -0.02139158       0.00159475      -0.00650592      -0.00361516
Cu       5.13875136       2.96685948      10.09788646        3       0.03675615       0.01856417      -0.03330112       0.00234995
Cu       7.70812704       2.96685948      10.09788646        3       0.00790477       0.01562681      -0.05818467      -0.01248628
Cu       3.85406352       5.19200409      10.09788646        3       0.03503568       0.00104474      -0.06041844       0.01534734
Cu       6.42343920       5.19200409      10.09788646        3       0.01043833       0.03090753      -0.00227366      -0.02441993
Cu       8.99281488       5.19200409      10.09788646        3      -0.02742487      -0.00426111      -0.02433870      -0.00639096
Cu      -0.00001456       1.48341895      12.22216237        2      -0.01597896       0.02671297      -0.01259265      -0.02523748
Cu       2.56938632       1.48343972      12.22228812        2      -0.00778269       0.00607870       0.07075750       0.00459270
Cu       5.13868200       1.48341490      12.22229490        2      -0.01010397       0.03596108       0.05365328      -0.02254070
Cu       1.28472730       3.70860469      12.22229670        2       0.01952281       0.00222057       0.03043794       0.02404065
Cu       3.85404919       3.70853617      12.22226661        2      -0.01288967       0.00479723      -0.00142024      -0.01542902
Cu       6.42343137       3.70855859      12.22219237        2      -0.04080050      -0.00709734       0.02630923       0.02030817
Cu       2.56933175       5.93372331      12.22226822        2       0.00878346      -0.05855819       0.06262956      -0.02908097
Cu       5.13873976       5.93371007      12.22221793        2      -0.01723492      -0.05123814       0.11645349      -0.01201080
Cu       7.70811165       5.93376676      12.22227910        2      -0.03249177      -0.00855875       0.08109416       0.01899123
Cu       0.00003176       0.00005032      14.34901118        1       0.17350033      -0.28862309      -0.26619680       0.24295419
Cu       2.56930125       0.00001804      14.34916312        1       0.17313578      -0.05498114       0.28605422      -0.06075319
Cu       5.13864853       0.00002580      14.34922433        1      -0.37898459      -0.21376866       0.05365042      -0.02483584
Cu       1.28470809       2.22517124      14.34907163        1       0.35045805       0.22682104       0.11465366      -0.09966993
Cu       3.85409307       2.22518508      14.34928516        1      -0.13836238       0.03209506       0.33765408      -0.04207638
Cu       6.42349021       2.22507450      14.34904494        1      -0.08905276       0.30502061       0.30744355       0.01615376
Cu       2.56959011       4.45037276      14.34913478        1      -0.04844674      -0.18392334       0.29652293      -0.03199938
Cu       5.13896751       4.45026038      14.34907842        1       0.03932891      -0.06545375       0.36484028      -0.07336826
Cu       7.70816084       4.45028686      14.34912297        1       0.04200629       0.11603970       0.34143085      -0.06297206
O        7.42863566       0.48496796      16.17776047        0      34.34071165     -59.39443445      -9.42112046      -0.45783142
C        6.72573976       1.70121602      16.37094484        0     -34.34810433      59.16480690       9.10497970       0.09822806
H        5.76245207       1.48745909      16.83872025        0      -0.16890857      -0.03719505       0.08342116       0.08053594
H        7.23527737       2.41805935      17.01688948        0       0.19240000       0.27307588       0.24657901       0.05230460
H        8.00858845       1.41648906      16.45689396        0      -0.01374462      -0.00389318      -0.01042809       0.42204965
