28
Lattice="8.493 0.0 0.0 4.2465 6.005457892617349 0.0 0.0 0.0 20.003638595078232" Properties=species:S:1:pos:R:3:tags:I:1:forces:R:3 charge=0 spin=0 energy=-183.05874304483163 free_energy=-183.05874304483163 stress="0.0490284226834774 -7.438613101840019e-05 -6.464393909055843e-09 -7.438613101840019e-05 0.0316765233874321 6.844572908448754e-09 -6.464393909055843e-09 6.844572908448754e-09 0.011811533011496067" pbc="T T T"
Fe       0.00000000       0.00000000       8.00000000        3       0.00935845      -0.00574406       0.54814160
Fe       2.83100000       0.00000000       8.00000000        3      -0.00649889      -0.01243285       0.53043902
Fe       5.66200000       0.00000000       8.00000000        3      -0.00255082       0.00552828       0.51224369
Fe       1.41550000       2.00181930       8.00000000        3      -0.00000005       0.00000022       0.72948074
Fe       4.24650000       2.00181930       8.00000000        3       0.00737692       0.00004271       0.53790504
Fe       7.07750000       2.00181930       8.00000000        3      -0.00737744      -0.00004264       0.53790444
Fe       2.83100000       4.00363860       8.00000000        3      -0.00935845       0.00574422       0.54814321
Fe       5.66200000       4.00363860       8.00000000        3       0.00255066      -0.00552788       0.51224220
Fe       8.49300000       4.00363860       8.00000000        3       0.00649933       0.01243382       0.53043890
Fe       0.00000000       2.00181930      10.00181930        2      -0.32686561       0.00101304      -0.10714351
Fe       2.83100000       2.00181930      10.00181930        2       0.32686293      -0.00101331      -0.10714201
Fe       5.66200000       2.00181930      10.00181930        2       0.00000049      -0.00000152      -0.51596701
Fe       1.41550000       4.00363860      10.00181930        2      -0.02463330       0.18414417      -0.45821244
Fe       4.24650000       4.00363860      10.00181930        2       0.07727361       0.03694231      -0.63263893
Fe       7.07750000       4.00363860      10.00181930        2      -0.06922781       0.01719359      -0.62778556
Fe       2.83100000       6.00545789      10.00181930        2      -0.07726924      -0.03694436      -0.63263690
Fe       5.66200000       6.00545789      10.00181930        2       0.02463103      -0.18414390      -0.45821184
Fe       8.49300000       6.00545789      10.00181930        2       0.06922642      -0.01719382      -0.62778127
Fe      -0.01531223       0.03838346      11.85240620        1      -0.18492794       0.25504172      -0.03492196
Fe       2.84857194       0.03637339      11.85291341        1       0.18496051       0.23342611      -0.03045157
Fe       5.66807130      -0.06236066      11.88432304        1       0.01921438      -0.42599046      -0.06997190
Fe       1.41549981       2.00181944      11.86469718        1      -0.00000012       0.00000188      -0.01482316
Fe       4.38918357       1.99986319      11.96817524        1       0.31822413      -0.02292589      -0.06359283
Fe       6.93481644       2.00377564      11.96817530        1      -0.31822422       0.02292443      -0.06359033
Fe       2.84631232       3.96525484      11.85240597        1       0.18492827      -0.25504234      -0.03491958
Fe       5.65592902       4.06599950      11.88432347        1      -0.01921335       0.42599043      -0.06996601
Fe       8.47542780       3.96726585      11.85291361        1      -0.18496056      -0.23342344      -0.03045059
H        5.66199975       2.00181927      13.16093173        0       0.00000098      -0.00000006      -0.40673190
