41
Lattice="7.708127040155146 0.0 0.0 3.854063520077573 6.675433832372109 0.0 0.0 0.0 22.29365937364323" Properties=species:S:1:pos:R:3:tags:I:1:forces:R:3:charge:R:1 energy=-4706.814495678913 free_energy=-4706.814495678913 stress="-0.01290912961102821 0.0006220182560082722 -5.5995012662931015e-05 0.0006220182560082722 -0.013643513264925319 -3.2249255609192364e-05 -5.5995012662931015e-05 -3.2249255609192364e-05 -0.015353275828892881" dipole="1.0081035496177406 0.5873013822854153 1.1128411381503382" pbc="T T F"
Cu      -0.00000000       0.00000000       8.00000000        4      -0.03744046      -0.02466202      -0.27572420       0.00343532
Cu       2.56937568      -0.00000000       8.00000000        4       0.01518374       0.01353955      -0.29181575       0.01008180
Cu       5.13875136      -0.00000000       8.00000000        4       0.02013028      -0.03199894      -0.31520535      -0.00538970
Cu       1.28468784       2.22514461       8.00000000        4       0.01716996       0.00850400      -0.29213343       0.00959801
Cu       3.85406352       2.22514461       8.00000000        4       0.02050804       0.00835189      -0.28046853       0.00572164
Cu       6.42343920       2.22514461       8.00000000        4      -0.03877502       0.00928416      -0.27125192      -0.01445202
Cu       2.56937568       4.45028922       8.00000000        4      -0.01877985       0.03621793      -0.31464084      -0.00472084
Cu       5.13875136       4.45028922       8.00000000        4      -0.01311970      -0.03620810      -0.27136350      -0.01498945
Cu       7.70812704       4.45028922       8.00000000        4       0.03030546       0.01411970      -0.30583079      -0.00576036
Cu       1.28468784       0.74171487      10.09788646        3      -0.01239568      -0.00703684      -0.01194548      -0.02796668
Cu       3.85406352       0.74171487      10.09788646        3      -0.01717492      -0.07434811      -0.06003630      -0.01852934
Cu       6.42343920       0.74171487      10.09788646        3       0.02863974      -0.05349215      -0.06037575       0.00355623
Cu       2.56937568       2.96685948      10.09788646        3      -0.07750484       0.01918678      -0.05825158      -0.01796492
Cu       5.13875136       2.96685948      10.09788646        3       0.04972218       0.02866858      -0.17224846       0.04248581
Cu       7.70812704       2.96685948      10.09788646        3       0.03243557       0.03101818      -0.07161696       0.00627364
Cu       3.85406352       5.19200409      10.09788646        3      -0.02740384       0.05445186      -0.06318388       0.00305283
Cu       6.42343920       5.19200409      10.09788646        3       0.03879702       0.00993843      -0.06926253       0.00717360
Cu       8.99281488       5.19200409      10.09788646        3      -0.00268653      -0.00092885       0.00131661      -0.01102038
Cu      -0.00001456       1.48341895      12.22216237        2      -0.02370052      -0.06508546       0.11545707      -0.01337867
Cu       2.56938632       1.48343972      12.22228812        2      -0.00189498      -0.00072133       0.07284555       0.04095893
Cu       5.13868200       1.48341490      12.22229490        2       0.01673583      -0.02465401       0.05603061      -0.04470632
Cu       1.28472730       3.70860469      12.22229670        2       0.03838382      -0.00522979       0.10451494      -0.00648950
Cu       3.85404919       3.70853617      12.22226661        2      -0.01008676       0.02876354       0.05194698      -0.04494953
Cu       6.42343137       3.70855859      12.22219237        2      -0.03824254      -0.02323281       0.00442788      -0.04329445
Cu       2.56933175       5.93372331      12.22226822        2       0.02256710       0.01299093       0.00557640       0.00497205
Cu       5.13873976       5.93371007      12.22221793        2      -0.07397321       0.00979292       0.11881507      -0.01373972
Cu       7.70811165       5.93376676      12.22227910        2       0.01982120       0.03830624       0.10156937      -0.00682052
Cu       0.00003176       0.00005032      14.34901118        1      -0.01265984      -0.00900949       0.39461809      -0.08272949
Cu       2.56930125       0.00001804      14.34916312        1       0.05542381       0.14523144       0.32268273      -0.04333427
Cu       5.13864853       0.00002580      14.34922433        1      -0.03981623      -0.14619778       0.33414978      -0.04923431
Cu       1.28470809       2.22517124      14.34907163        1       0.15248220      -0.02091104       0.32128937      -0.04748451
Cu       3.85409307       2.22518508      14.34928516        1      -0.16567835      -0.09226741       0.30199776       0.01529373
Cu       6.42349021       2.22507450      14.34904494        1       0.23556938      -0.32399769       0.12405905       0.26036131
Cu       2.56959011       4.45037276      14.34913478        1      -0.14728549       0.04175290       0.33116085      -0.04557141
Cu       5.13896751       4.45026038      14.34907842        1      -0.15627901       0.35699264       0.11991348       0.25871727
Cu       7.70816084       4.45028686      14.34912297        1       0.12895399       0.07789204       0.29584246       0.01581982
O        5.79075985       3.34391117      15.80594510        0      -0.00518820      -0.00094761      -0.03283322      -0.44530889
C        5.78217041       3.34018615      17.22035391        0       0.01060698      -0.00893994       0.03732636       0.18563455
H        6.80208657       3.21677599      17.60184164        0      -0.02873042       0.00664822      -0.00756395       0.04390368
H        5.37524322       4.28471769      17.59480834        0       0.00928120      -0.00870090       0.00187419       0.04699032
H        5.16186882       2.51612523      17.58913153        0       0.00609890       0.00691835       0.00833784       0.04380474
