41
Lattice="7.708127040155146 0.0 0.0 3.854063520077573 6.675433832372109 0.0 0.0 0.0 22.29365937364323" Properties=species:S:1:pos:R:3:tags:I:1:forces:R:3:charge:R:1 energy=-4706.745254854766 free_energy=-4706.745254854766 stress="-0.013003670658594431 0.0005133365181453555 -5.3706090748454646e-05 0.0005133365181453555 -0.013664043897869797 -2.9315213101881122e-05 -5.3706090748454646e-05 -2.9315213101881122e-05 -0.012569092653986615" dipole="0.8655369285420772 0.5026095357576371 1.019172420563203" pbc="T T F"
Cu      -0.00000000       0.00000000       8.00000000        4      -0.04255561      -0.02738606      -0.27754070       0.00342158
Cu       2.56937568      -0.00000000       8.00000000        4       0.01937808       0.01219358      -0.29190413       0.01062162
Cu       5.13875136      -0.00000000       8.00000000        4       0.02117670      -0.03559501      -0.31909614      -0.00644631
Cu       1.28468784       2.22514461       8.00000000        4       0.01841815       0.01258901      -0.29216520       0.01020072
Cu       3.85406352       2.22514461       8.00000000        4       0.01838897       0.00737809      -0.28057648       0.00617710
Cu       6.42343920       2.22514461       8.00000000        4      -0.03789245       0.00370919      -0.26855901      -0.01226903
Cu       2.56937568       4.45028922       8.00000000        4      -0.02132526       0.03869425      -0.31850693      -0.00579979
Cu       5.13875136       4.45028922       8.00000000        4      -0.01719931      -0.03271766      -0.26862364      -0.01277947
Cu       7.70812704       4.45028922       8.00000000        4       0.03707646       0.01842450      -0.30632721      -0.00581888
Cu       1.28468784       0.74171487      10.09788646        3      -0.01320522      -0.00753276      -0.01358473      -0.02621788
Cu       3.85406352       0.74171487      10.09788646        3      -0.01445940      -0.07313718      -0.05867284      -0.01774696
Cu       6.42343920       0.74171487      10.09788646        3       0.02716974      -0.05368862      -0.05987936       0.00240014
Cu       2.56937568       2.96685948      10.09788646        3      -0.07471076       0.02133919      -0.05710833      -0.01731906
Cu       5.13875136       2.96685948      10.09788646        3       0.04698924       0.02694147      -0.17122306       0.04050162
Cu       7.70812704       2.96685948      10.09788646        3       0.03199237       0.03155815      -0.07116632       0.00573910
Cu       3.85406352       5.19200409      10.09788646        3      -0.02891209       0.05306360      -0.06233326       0.00199591
Cu       6.42343920       5.19200409      10.09788646        3       0.03950364       0.00961288      -0.06916414       0.00651503
Cu       8.99281488       5.19200409      10.09788646        3      -0.00287603      -0.00120890       0.00304419      -0.01112214
Cu      -0.00001456       1.48341895      12.22216237        2      -0.01992613      -0.06370342       0.12959171      -0.01220976
Cu       2.56938632       1.48343972      12.22228812        2      -0.00635515      -0.00345867       0.08184031       0.03651072
Cu       5.13868200       1.48341490      12.22229490        2       0.01449328      -0.02429990       0.07939156      -0.04092402
Cu       1.28472730       3.70860469      12.22229670        2       0.03269344      -0.00620172       0.12460844      -0.00665693
Cu       3.85404919       3.70853617      12.22226661        2      -0.01106513       0.02653955       0.07604603      -0.04106939
Cu       6.42343137       3.70855859      12.22219237        2      -0.03816122      -0.02303000       0.05249652      -0.04017997
Cu       2.56933175       5.93372331      12.22226822        2       0.02252605       0.01292912       0.02187026       0.00358440
Cu       5.13873976       5.93371007      12.22221793        2      -0.07003386       0.01258323       0.13242741      -0.01254129
Cu       7.70811165       5.93376676      12.22227910        2       0.01541841       0.03355111       0.12202080      -0.00705427
Cu       0.00003176       0.00005032      14.34901118        1      -0.01052754      -0.00992162       0.36718739      -0.07102508
Cu       2.56930125       0.00001804      14.34916312        1       0.05609179       0.14582309       0.31398471      -0.03807092
Cu       5.13864853       0.00002580      14.34922433        1      -0.04449206      -0.15333447       0.32475469      -0.04311859
Cu       1.28470809       2.22517124      14.34907163        1       0.15507978      -0.02010389       0.31578963      -0.04213746
Cu       3.85409307       2.22518508      14.34928516        1      -0.14818618      -0.08307401       0.32981203       0.02449269
Cu       6.42349021       2.22507450      14.34904494        1       0.14224046      -0.16509508       0.39295243       0.23677004
Cu       2.56959011       4.45037276      14.34913478        1      -0.15368596       0.04093085       0.32296849      -0.03996393
Cu       5.13896751       4.45026038      14.34907842        1      -0.06624672       0.19894463       0.38800590       0.23531845
Cu       7.70816084       4.45028686      14.34912297        1       0.11485275       0.06889770       0.32110578       0.02410082
O        5.78613925       3.34127614      15.89157098        0       0.04757730       0.03467630       0.13715907      -0.44930658
C        5.78294132       3.34035380      17.31464040        0      -0.02084786      -0.01504149       0.14856501       0.18588495
H        6.77910952       3.21871384      17.75095182        0       0.23651513      -0.01968068      -0.37330094       0.04093928
H        5.38191015       4.26269530      17.74225834        0      -0.08623076       0.24172891      -0.34595515       0.04293305
H        5.17527929       2.53368155      17.73024189        0      -0.16868708      -0.23389722      -0.27993482       0.04167051
