5
Lattice="21.467562318286515 0.0 0.0 0.0 21.407574229432765 0.0 0.0 0.0 21.35786552278602" Properties=species:S:1:pos:R:3:forces:R:3 charge=0 spin=1 energy=-1101.8067088739426 free_energy=-1101.8067088739426 stress="7.706616452196613e-05 -1.3922708603786305e-06 9.41651342145633e-06 -1.3922708603786305e-06 2.470091203576885e-05 -7.078495400492102e-06 9.41651342145633e-06 -7.078495400492102e-06 3.734432903002016e-05" pbc="T T T"
C       10.72128866      10.64781006      10.67895584      -0.03724339       0.06415791      -0.03790916
H       11.25875197      11.39825723      10.08709413      -0.19846739      -0.15233910       0.14791034
H       11.45602441      10.06827987      11.25494011      -0.36099052       0.10480391      -0.18798548
H       10.14136651      10.00360292      10.00720634       0.30015841       0.05193730       0.16596909
H       10.01155952      11.14272900      11.35226169       0.29654288      -0.06856002      -0.08798479
