41
Lattice="7.708127040155146 0.0 0.0 3.854063520077573 6.675433832372109 0.0 0.0 0.0 22.29365937364323" Properties=species:S:1:pos:R:3:tags:I:1:forces:R:3:charge:R:1 energy=-4661.547572880428 free_energy=-4661.547572880428 stress="-0.017651365025555563 0.0025359034158401006 -0.0011764646618042413 0.0025359034158401006 -0.01469033887711368 0.000698697520763066 -0.0011764646618042413 0.000698697520763066 -0.014818285137005806" dipole="-0.8467500368433716 -0.6385198379525597 1.9657393743162377" pbc="T T F"
Cu      -0.00000000       0.00000000       8.00000000        4       0.01914757       0.03269551      -0.27369657      -0.00487509
Cu       2.56937568      -0.00000000       8.00000000        4      -0.02407655       0.01390755      -0.31791363      -0.01798632
Cu       5.13875136      -0.00000000       8.00000000        4      -0.00450434       0.01224555      -0.29265981       0.01348036
Cu       1.28468784       2.22514461       8.00000000        4      -0.01873980      -0.03289248      -0.27377547      -0.00491719
Cu       3.85406352       2.22514461       8.00000000        4       0.04653685       0.06393074      -0.31844387      -0.00485262
Cu       6.42343920       2.22514461       8.00000000        4      -0.03762376       0.02172725      -0.34515016      -0.03874664
Cu       2.56937568       4.45028922       8.00000000        4       0.03453077      -0.01997490      -0.29064503      -0.01531704
Cu       5.13875136       4.45028922       8.00000000        4      -0.03209692      -0.07227252      -0.31844729      -0.00490540
Cu       7.70812704       4.45028922       8.00000000        4      -0.01282610      -0.00224642      -0.29260932       0.01353938
Cu       1.28468784       0.74171487      10.09788646        3       0.05438822      -0.03129507      -0.10252069       0.03490398
Cu       3.85406352       0.74171487      10.09788646        3      -0.00935073      -0.02720134      -0.01115380      -0.01682193
Cu       6.42343920       0.74171487      10.09788646        3      -0.01936801       0.04147988      -0.11795287       0.01458724
Cu       2.56937568       2.96685948      10.09788646        3       0.06672529       0.05280969      -0.02197327       0.00431348
Cu       5.13875136       2.96685948      10.09788646        3       0.00805501      -0.00472009      -0.01080411       0.00421280
Cu       7.70812704       2.96685948      10.09788646        3      -0.04542951      -0.00412234      -0.11798554       0.01460268
Cu       3.85406352       5.19200409      10.09788646        3      -0.01238494      -0.08431001      -0.02194442       0.00433008
Cu       6.42343920       5.19200409      10.09788646        3       0.01883347       0.02176039      -0.01118356      -0.01681410
Cu       8.99281488       5.19200409      10.09788646        3       0.02138142      -0.01228958      -0.00872425      -0.01037670
Cu      -0.00001456       1.48341895      12.22216237        2      -0.04262003       0.02478568       0.00540795      -0.01759179
Cu       2.56938632       1.48343972      12.22228812        2       0.02404149      -0.04606524       0.06737416      -0.02910856
Cu       5.13868200       1.48341490      12.22229490        2      -0.00142605       0.03081021       0.06380630      -0.00898811
Cu       1.28472730       3.70860469      12.22229670        2       0.03016483       0.05285846       0.09375171      -0.00698828
Cu       3.85404919       3.70853617      12.22226661        2      -0.02612180       0.01542080       0.02196583       0.01164853
Cu       6.42343137       3.70855859      12.22219237        2      -0.02742539      -0.01392236       0.06409899      -0.00901685
Cu       2.56933175       5.93372331      12.22226822        2      -0.03070224      -0.05271245       0.09376366      -0.00700902
Cu       5.13873976       5.93371007      12.22221793        2       0.05204478       0.00200857       0.06748022      -0.02912484
Cu       7.70811165       5.93376676      12.22227910        2      -0.03445812       0.01964369       0.02280184       0.03915975
Cu       0.00003176       0.00005032      14.34901118        1      -0.00994962      -0.54646937      -0.14642297       0.13695051
Cu       2.56930125       0.00001804      14.34916312        1       0.35645953      -0.20564752       0.19929641      -0.01225654
Cu       5.13864853       0.00002580      14.34922433        1      -0.29554575      -0.12577099       0.28212130      -0.07865703
Cu       1.28470809       2.22517124      14.34907163        1       0.46809451       0.28182873      -0.14801246       0.13682306
Cu       3.85409307       2.22518508      14.34928516        1       0.00679482       0.03265870       0.32973421      -0.07600344
Cu       6.42349021       2.22507450      14.34904494        1      -0.39122073       0.22530225       0.05661658       0.05455713
Cu       2.56959011       4.45037276      14.34913478        1       0.03962433      -0.02344105       0.39631906      -0.08413950
Cu       5.13896751       4.45026038      14.34907842        1      -0.02563232      -0.02198567       0.33005289      -0.07586900
Cu       7.70816084       4.45028686      14.34912297        1      -0.03881242       0.31950105       0.28199179      -0.07869165
O        8.23293409       1.18049275      15.97138494        0      78.95037751     -45.58303429     -21.18507037      -0.46013936
C        7.03675765       1.87096136      16.29241015        0     -78.85565328      45.55322874      21.02672949       0.09554035
H        7.23342491       2.79813356      16.83472152        0       0.03029576       0.13715877       0.08050931       0.05244559
H        6.33366502       1.23748629      16.83564856        0      -0.11811492      -0.10661824       0.09109751       0.05259527
H        7.95988246       1.34242060      17.06229608        0      -0.00932061       0.00317875      -0.01253222       0.42550685
