3
Lattice="21.6254485609262 0.0 0.0 0.0 20.54986053633348 0.0 0.0 0.0 20.0" Properties=species:S:1:pos:R:3:forces:R:3 charge=0 spin=1 energy=-2079.8644226320666 stress="-2.5683738158477354e-07 -1.1042104688385734e-06 5.177235593359364e-13 -1.1042104688385734e-06 -8.27323958674242e-07 -1.1966856325318354e-11 5.177235593359364e-13 -1.1966856325318354e-11 -1.863850328416572e-13" free_energy=-2079.8644226320666 pbc="T T T"
O       10.81193598      10.57360488      10.00000000       0.01676883       0.01255622      -0.00000000
H       10.04960510       9.98800591      10.00000000      -0.00988678      -0.01271489       0.00000001
H       11.57540752       9.98883554      10.00000000      -0.00688204       0.00015869      -0.00000001
