3
Lattice="21.6254485609262 0.0 0.0 0.0 20.54986053633348 0.0 0.0 0.0 20.0" Properties=species:S:1:pos:R:3:forces:R:3 charge=0 spin=1 energy=-2079.8448328652066 stress="8.010730380192399e-05 2.214528649346903e-07 1.8819314162588086e-11 2.214528649346903e-07 -2.259370739920996e-05 1.1203985655905413e-11 1.8819314162588086e-11 1.1203985655905413e-11 0.0" free_energy=-2079.8448328652066 pbc="T T T"
O       10.81211348      10.55026925      10.00000000      -0.00277643       0.36499587      -0.00000005
H       10.02076591       9.99959874      10.00000000       0.45107746      -0.18132505       0.00000002
H       11.60406921      10.00057834      10.00000000      -0.44830105      -0.18367080       0.00000003
