30
Lattice="8.493 0.0 0.0 4.2465 6.005457892617349 0.0 0.0 0.0 20.003638595078232" Properties=species:S:1:pos:R:3:tags:I:1:forces:R:3 charge=0 spin=0 energy=-197.78119476335064 free_energy=-197.78119476335064 stress="0.05445539578795433 -0.000574313395190984 0.00014527760504279286 -0.000574313395190984 0.019057251513004303 -0.002164456294849515 0.00014527760504279286 -0.002164456294849515 0.008527645841240883" pbc="T T T"
Fe       0.00000000       0.00000000       8.00000000        3       0.01527600      -0.08804349       0.55702758
Fe       2.83100000       0.00000000       8.00000000        3       0.00355106      -0.11428543       0.41453621
Fe       5.66200000       0.00000000       8.00000000        3       0.01928690      -0.12710170       0.43220496
Fe       1.41550000       2.00181930       8.00000000        3      -0.06457611      -0.14081484       0.44431484
Fe       4.24650000       2.00181930       8.00000000        3       0.03715389      -0.13472545       0.44722456
Fe       7.07750000       2.00181930       8.00000000        3       0.00690377      -0.10465291       0.58890355
Fe       2.83100000       4.00363860       8.00000000        3       0.04560298      -0.15296052       0.40707868
Fe       5.66200000       4.00363860       8.00000000        3       0.02845222      -0.08873063       0.55437648
Fe       8.49300000       4.00363860       8.00000000        3      -0.01255292      -0.11947414       0.47591904
Fe      -0.00000000       2.00181930      10.00181930        2       0.00759806      -0.12304671      -0.32872564
Fe       2.83100000       2.00181930      10.00181930        2      -0.14403111       0.33739883      -0.71999079
Fe       5.66200000       2.00181930      10.00181930        2       0.02740969       0.22219795      -0.22033052
Fe       1.41550000       4.00363860      10.00181930        2      -0.04890316       0.27817166      -0.67192799
Fe       4.24650000       4.00363860      10.00181930        2       0.02670382       0.21013449      -0.52897412
Fe       7.07750000       4.00363860      10.00181930        2      -0.06401233      -0.14120354      -0.28368264
Fe       2.83100000       6.00545789      10.00181930        2       0.05171090       0.23496646      -0.44427639
Fe       5.66200000       6.00545789      10.00181930        2       0.15719764      -0.13398197      -0.45280358
Fe       8.49300000       6.00545789      10.00181930        2      -0.09405650       0.18199840      -0.65846211
Fe       0.01583942      -0.52786720      11.82091579        1      -0.00327770       0.00526413       0.00734858
Fe       3.03299751      -0.65326763      11.87505361        1       0.00401810      -0.00284589      -0.01071354
Fe       5.61331729      -0.55808429      11.83280806        1      -0.00740811       0.00123739       0.00066105
Fe       1.56814803       1.33770393      11.87761298        1      -0.00059635       0.00378516      -0.00033899
Fe       4.10870195       1.42616631      11.81132008        1      -0.00124067      -0.00432677      -0.00021990
Fe       7.03048324       1.50753747      11.88862050        1       0.00137754       0.00106732       0.00707833
Fe       2.81956076       3.46059003      11.83442852        1      -0.00372582       0.00108127      -0.00485624
Fe       5.62724927       3.43485220      11.91727878        1      -0.00168278      -0.00811192      -0.00232148
Fe       8.74910444       3.35874663      11.84773091        1       0.00584571       0.00015057       0.00306407
N        6.36958741       2.49234477      13.48037446        0       0.01765059       0.01708867      -0.00079981
H        5.73114444       1.98557096      14.10652137        0       0.00147054      -0.00656374       0.00322187
H        7.02975061       3.02127336      14.06596640        0      -0.01114538      -0.00367292      -0.01453586
