28
Lattice="8.493 0.0 0.0 4.2465 6.005457892617349 0.0 0.0 0.0 20.003638595078232" Properties=species:S:1:pos:R:3:tags:I:1:forces:R:3 charge=0 spin=0 energy=-189.26069218545967 free_energy=-189.26069218545967 stress="0.045903280377388 -0.00026652836822904646 1.4028983308378429e-08 -0.00026652836822904646 0.03243284672498703 3.559023866728239e-07 1.4028983308378429e-08 3.559023866728239e-07 0.011257674545049667" pbc="T T T"
Fe       0.00000000       0.00000000       8.00000000        3      -0.02358746       0.02006893       0.51673412
Fe       2.83100000       0.00000000       8.00000000        3       0.03271727      -0.00188070       0.55336529
Fe       5.66200000       0.00000000       8.00000000        3      -0.00275211      -0.03699403       0.39001662
Fe       1.41550000       2.00181930       8.00000000        3       0.00000151      -0.00000384       0.63449734
Fe       4.24650000       2.00181930       8.00000000        3       0.14031023      -0.02093108       0.71829921
Fe       7.07750000       2.00181930       8.00000000        3      -0.14030996       0.02092332       0.71829504
Fe       2.83100000       4.00363860       8.00000000        3       0.02359564      -0.02007620       0.51674092
Fe       5.66200000       4.00363860       8.00000000        3       0.00275230       0.03698722       0.39001161
Fe       8.49300000       4.00363860       8.00000000        3      -0.03272199       0.00187555       0.55336499
Fe       0.00000000       2.00181930      10.00181930        2      -0.54699248      -0.08258370      -0.67619830
Fe       2.83100000       2.00181930      10.00181930        2       0.54698825       0.08265683      -0.67619425
Fe       5.66200000       2.00181930      10.00181930        2       0.00000008      -0.00000304       0.36198175
Fe       1.41550000       4.00363860      10.00181930        2      -0.00473226      -0.30509141      -0.75353312
Fe       4.24650000       4.00363860      10.00181930        2       0.39888856       0.37231007      -0.50921714
Fe       7.07750000       4.00363860      10.00181930        2      -0.33413753       0.37177891      -0.42752525
Fe       2.83100000       6.00545789      10.00181930        2      -0.39886320      -0.37227112      -0.50922227
Fe       5.66200000       6.00545789      10.00181930        2       0.00472193       0.30515426      -0.75348616
Fe       8.49300000       6.00545789      10.00181930        2       0.33411998      -0.37174597      -0.42752394
Fe       0.00727053      -0.02809551      11.83068006        1       0.23035903      -0.24892502       0.00108916
Fe       2.81279924      -0.04939094      11.83438572        1      -0.25278017      -0.29146716      -0.00860789
Fe       5.67741437       0.21012579      11.90821286        1       0.02066224       0.48022395      -0.05110399
Fe       1.41549893       2.00181188      11.88120010        1       0.00000087      -0.00003484       0.01766454
Fe       3.93490739       1.99295002      12.09523967        1      -0.41232568      -0.03066870      -0.07979231
Fe       7.38909421       2.01067411      12.09523918        1       0.41233832       0.03065157      -0.07979677
Fe       2.82372725       4.03171926      11.83067749        1      -0.23038279       0.24888182       0.00108980
Fe       5.64658859       3.79350562      11.90821781        1      -0.02066184      -0.48014134      -0.05114787
Fe       8.51120308       4.05302046      11.83438399        1       0.25280279       0.29142544      -0.00860683
N        5.66200110       2.00183928      12.68953233        0      -0.00001140      -0.00011985      -0.36119404
