29
Lattice="8.493 0.0 0.0 4.2465 6.005457892617349 0.0 0.0 0.0 20.003638595078232" Properties=species:S:1:pos:R:3:tags:I:1:forces:R:3:charge:R:1 charge=0 spin=0 energy=-2300.7342824523553 free_energy=-2300.7342824523553 stress="0.022412962065640467 -0.0008333533843205921 0.0012137233528238052 -0.0008333533843205921 0.004827202223143816 -0.0005500243623443598 0.0012137233528238052 -0.0005500243623443598 -0.004793506109771251" dipole="0.13197794236161367 -0.16276103827667393 0.6848727003400071" pbc="T T T"
Fe       0.00000000       0.00000000       8.00000000        3       0.08981844      -0.08085858      -0.14087113      -0.00207418
Fe       2.83100000       0.00000000       8.00000000        3      -0.12069334       0.02864923      -0.04451123      -0.00405317
Fe       5.66200000       0.00000000       8.00000000        3       0.03164799      -0.00148640      -0.07151992      -0.00273423
Fe       1.41550000       2.00181930       8.00000000        3       0.02996113      -0.07183523      -0.16034542      -0.00333059
Fe       4.24650000       2.00181930       8.00000000        3      -0.08331716      -0.00433602       0.01568255      -0.00376864
Fe       7.07750000       2.00181930       8.00000000        3      -0.00711486       0.01799567      -0.02250553      -0.00264875
Fe       2.83100000       4.00363860       8.00000000        3       0.07649461      -0.05349606      -0.05675909      -0.00257053
Fe       5.66200000       4.00363860       8.00000000        3      -0.04763523       0.01039833      -0.04479358      -0.00350543
Fe       8.49300000       4.00363860       8.00000000        3       0.07206170      -0.01437049      -0.07639570      -0.00348889
Fe       0.00000000       2.00181930      10.00181930        2      -0.08075132       0.33555370      -0.17613124       0.00156094
Fe       2.83100000       2.00181930      10.00181930        2      -0.35696536      -0.21982672       0.11809634       0.00107038
Fe       5.66200000       2.00181930      10.00181930        2       0.29549662      -0.18413319      -1.19530309       0.01032782
Fe       1.41550000       4.00363860      10.00181930        2       0.11191304       0.43220545      -0.34607405       0.00357085
Fe       4.24650000       4.00363860      10.00181930        2       0.01125214      -0.29113395       0.19200533       0.00162774
Fe       7.07750000       4.00363860      10.00181930        2      -0.11000993      -0.21871321      -0.54924581       0.00678982
Fe       2.83100000       6.00545789      10.00181930        2       0.01432641       0.58735160      -0.64244772       0.00263019
Fe       5.66200000       6.00545789      10.00181930        2      -0.05132667      -0.27832080       0.26989166       0.00112338
Fe       8.49300000       6.00545789      10.00181930        2       0.44192038      -0.37949039      -1.09863958       0.00507895
Fe      -0.39294215      -0.64081239      11.89914594        1      -0.04846574      -0.01506960       0.34214972      -0.00239824
Fe       3.15129007       0.29900728      11.82621820        1      -0.81168429       0.09433816       0.67335812       0.00748294
Fe       5.67580923      -0.51311943      11.82642584        1       0.25927876      -0.31757302       0.38511853      -0.00180844
Fe       1.05372265       1.35349095      11.91274636        1       0.11456392       0.14642987       0.11537541       0.00131725
Fe       4.55718257       2.19495814      11.91059787        1       1.44145649       0.25682298       2.80982326       0.06382499
Fe       7.10981515       1.49918791      11.89013415        1      -1.05341521       0.95935854       1.78805614       0.01707786
Fe       2.47355433       3.34496955      11.89808500        1       0.03084929      -0.04394980       0.14367230       0.00490521
Fe       5.98591592       4.41079687      11.91895696        1       0.06392386      -0.21639036       0.70175952       0.04776087
Fe       8.55500895       3.53463000      11.82006576        1       0.16359020      -0.00155654       0.19904230       0.01494266
O        5.86398472       2.28347562      13.12979524        0       0.00093931       0.00046712      -0.00002902      -0.34792432
H        6.74807776       0.61771768      13.06600122        0      -0.00045890       0.00013517      -0.00071602       0.18921355
