29
Lattice="8.493 0.0 0.0 4.2465 6.005457892617349 0.0 0.0 0.0 20.003638595078232" Properties=species:S:1:pos:R:3:tags:I:1:forces:R:3:charge:R:1 charge=0 spin=0 energy=-2467.5825210258354 free_energy=-2467.5825210258354 stress="0.016209794449074583 0.00012174746976076166 -9.290641395757032e-05 0.00012174746976076166 0.002524701057512884 -0.0035213450972183674 -9.290641395757032e-05 -0.0035213450972183674 -0.0066923948683970036" dipole="-0.5053608134483178 0.29215680647107944 1.075783025391849" pbc="T T T"
Fe       0.00000000       0.00000000       8.00000000        3       0.00895289       0.04564119      -0.06597659      -0.00152036
Fe       2.83100000       0.00000000       8.00000000        3      -0.05139567      -0.03730990      -0.02469412      -0.00165917
Fe       5.66200000       0.00000000       8.00000000        3       0.05490354       0.04580004      -0.05691086      -0.00148852
Fe       1.41550000       2.00181930       8.00000000        3      -0.13406153       0.01224741       0.03534152      -0.00226902
Fe       4.24650000       2.00181930       8.00000000        3       0.00790954      -0.02933031      -0.10722276      -0.00213512
Fe       7.07750000       2.00181930       8.00000000        3       0.06967653      -0.00908655       0.02949494      -0.00233125
Fe       2.83100000       4.00363860       8.00000000        3       0.12604497       0.03737637       0.04404777      -0.00237277
Fe       5.66200000       4.00363860       8.00000000        3      -0.05374170       0.00485315      -0.00707294      -0.00197143
Fe       8.49300000       4.00363860       8.00000000        3       0.00859672       0.08861558      -0.04634456      -0.00261599
Fe       0.00000000       2.00181930      10.00181930        2      -0.22282462       0.00862714      -0.16677491       0.01400046
Fe       2.83100000       2.00181930      10.00181930        2       0.44069079       0.03599601      -0.75503443       0.00010763
Fe       5.66200000       2.00181930      10.00181930        2      -0.23103662       0.01954491      -0.91861944       0.00253323
Fe       1.41550000       4.00363860      10.00181930        2      -0.27481381      -0.13422921      -0.89242764       0.00148225
Fe       4.24650000       4.00363860      10.00181930        2       0.35418918      -0.06952819       0.59515745      -0.00093479
Fe       7.07750000       4.00363860      10.00181930        2      -0.03543882      -0.12532252      -0.82557818       0.00644937
Fe       2.83100000       6.00545789      10.00181930        2      -0.66231859      -0.11189327      -0.14170075      -0.00126505
Fe       5.66200000       6.00545789      10.00181930        2       0.55189990       0.07216287      -0.04735109      -0.00184373
Fe       8.49300000       6.00545789      10.00181930        2      -0.13513994      -0.15123012      -1.11582447       0.00348384
Fe      -0.00001286      -0.00009696      11.75033812        1      -0.05339714      -0.10481349       0.38804801       0.04046779
Fe       3.07159637       0.03099151      11.91004278        1       0.16487307       0.37967307       0.43973970       0.01359886
Fe       5.42143221      -0.03111893      11.91005365        1      -0.16928712      -0.19939302       0.16865087       0.01458206
Fe       1.65226266       1.83399823      11.85374402        1      -0.45651566      -0.05602160       1.43219269       0.04379519
Fe       4.20554567       2.38623638      11.86516243        1      -0.10207328       0.50904125      -0.03627640       0.02146970
Fe       6.79319282       1.77884592      11.98628905        1       0.06492618      -0.85107086       0.68965638       0.09849473
Fe       2.59420062       4.17122996      11.85375328        1       0.34598561       0.01346844       0.36377490       0.01213160
Fe       5.94626350       4.22678979      11.98607328        1       0.29554693      -1.13109203       1.49757224       0.05608815
Fe       8.53396109       3.61914660      11.86517145        1      -0.53668756      -1.07343207       1.62305879       0.07666493
O        6.70385901       2.89281612      13.11874718        0       0.00716286       0.02603329      -0.01241964      -0.18823765
O        8.26114487       2.14515745      12.82126762        0      -0.00687080       0.00288832      -0.00785796      -0.19470494
