41
Lattice="7.708127040155146 0.0 0.0 3.854063520077573 6.675433832372109 0.0 0.0 0.0 22.29365937364323" Properties=species:S:1:pos:R:3:tags:I:1:forces:R:3:charge:R:1 energy=-4703.611928733311 free_energy=-4703.611928733311 stress="-0.012542257078261378 -9.366508558820817e-05 2.1902739696201295e-05 -9.366508558820817e-05 -0.015006559159921863 4.1150581288902765e-05 2.1902739696201295e-05 4.1150581288902765e-05 -0.01548993715271923" dipole="-0.08452900994966091 -0.13655894475151628 0.9228343072980119" pbc="T T F"
Cu       0.00000000       0.00000000       8.00000000        4      -0.04177806       0.06583306      -0.28486191       0.00191954
Cu       2.56937568       0.00000000       8.00000000        4      -0.01323400       0.06232962      -0.28142027       0.00063877
Cu       5.13875136       0.00000000       8.00000000        4       0.05594953       0.03863050      -0.28054875      -0.00089257
Cu       1.28468784       2.22514461       8.00000000        4      -0.00022141      -0.00240754      -0.33561102      -0.00536799
Cu       3.85406352       2.22514461       8.00000000        4      -0.00827613       0.01810734      -0.32318997       0.00189616
Cu       6.42343920       2.22514461       8.00000000        4       0.00951227      -0.00795041      -0.35771528      -0.02324176
Cu       2.56937568       4.45028922       8.00000000        4      -0.00701379      -0.04512870      -0.29524651      -0.01286687
Cu       5.13875136       4.45028922       8.00000000        4       0.00729838      -0.08277690      -0.28243112       0.01614558
Cu       7.70812704       4.45028922       8.00000000        4       0.00099245      -0.07828977      -0.27973465       0.01858328
Cu       1.28468784       0.74171487      10.09788646        3       0.05366513       0.04868827      -0.05646468      -0.00236520
Cu       3.85406352       0.74171487      10.09788646        3      -0.05083461       0.03878513      -0.04725281       0.00406975
Cu       6.42343920       0.74171487      10.09788646        3      -0.00545518      -0.00080661      -0.12586693       0.02591628
Cu       2.56937568       2.96685948      10.09788646        3       0.00064315       0.02328746       0.02918625      -0.00576686
Cu       5.13875136       2.96685948      10.09788646        3      -0.03414247       0.01212960      -0.04590765      -0.01434623
Cu       7.70812704       2.96685948      10.09788646        3       0.02997001      -0.00198005      -0.02841346      -0.01237396
Cu       3.85406352       5.19200409      10.09788646        3      -0.06126108      -0.03939660      -0.05727075       0.00536268
Cu       6.42343920       5.19200409      10.09788646        3      -0.00464698       0.02592283      -0.03883035      -0.00847267
Cu       8.99281488       5.19200409      10.09788646        3       0.06332425      -0.02280970      -0.06655128       0.00493048
Cu      -0.00001456       1.48341895      12.22216237        2       0.05911204       0.01662184       0.03919726      -0.02774173
Cu       2.56938632       1.48343972      12.22228812        2      -0.00986124      -0.03934729       0.02690361       0.00759091
Cu       5.13868200       1.48341490      12.22229490        2      -0.03948158       0.02698550       0.07462131      -0.01958076
Cu       1.28472730       3.70860469      12.22229670        2       0.02980771       0.01087484       0.04773549      -0.00005510
Cu       3.85404919       3.70853617      12.22226661        2      -0.02788865       0.02049663       0.04186481      -0.00822993
Cu       6.42343137       3.70855859      12.22219237        2      -0.01325362       0.04034406       0.04375800       0.03070929
Cu       2.56933175       5.93372331      12.22226822        2      -0.00966672      -0.09132069       0.09352571      -0.02615106
Cu       5.13873976       5.93371007      12.22221793        2       0.07354340      -0.01770078       0.09746850      -0.00909832
Cu       7.70811165       5.93376676      12.22227910        2      -0.06099869      -0.02347978       0.11593097      -0.01426850
Cu       0.00003176       0.00005032      14.34901118        1       0.25024278      -0.34674576       0.27671961       0.09905097
Cu       2.56930125       0.00001804      14.34916312        1      -0.00933496       0.02561401       0.35077337      -0.05536313
Cu       5.13864853       0.00002580      14.34922433        1      -0.24651103      -0.30753407       0.26392173       0.12020473
Cu       1.28470809       2.22517124      14.34907163        1       0.24395349       0.17034175       0.31647056      -0.07116259
Cu       3.85409307       2.22518508      14.34928516        1      -0.23182440       0.18986681       0.28553409      -0.05546903
Cu       6.42349021       2.22507450      14.34904494        1       0.00192647       0.67608157       0.21686224      -0.06681484
Cu       2.56959011       4.45037276      14.34913478        1       0.01932476      -0.30120070       0.19673233       0.01300579
Cu       5.13896751       4.45026038      14.34907842        1       0.01135398      -0.05129701       0.34132703      -0.03259855
Cu       7.70816084       4.45028686      14.34912297        1      -0.01968665      -0.04626523       0.33725007      -0.03214175
O        6.41906962       0.08318188      16.11377497        0      -0.00031327      -0.00134343      -0.00131205      -0.46642680
C        6.45108691       1.45746410      16.55632511        0      -0.01004636       0.00263288       0.00261615       0.13875372
H        5.51110249       1.74451560      17.01943826        0       0.00652396      -0.00597249      -0.00685654       0.08629792
H        7.32349909       1.64214367      17.17801667        0      -0.01215286      -0.00010374       0.00059874       0.08115405
H        6.67425704       1.05921468      15.43709436        0       0.00073999       0.00028355      -0.00351186       0.31456626
