41
Lattice="7.708127040155146 0.0 0.0 3.854063520077573 6.675433832372109 0.0 0.0 0.0 22.29365937364323" Properties=species:S:1:pos:R:3:tags:I:1:forces:R:3:charge:R:1 energy=-4703.688091638207 free_energy=-4703.688091638207 stress="-0.01236005226768054 0.0012183405399387275 6.933336984709666e-05 0.0012183405399387275 -0.015273279359881648 -0.0008657643364046465 6.933336984709666e-05 -0.0008657643364046465 -0.01612179928651955" dipole="0.6201837920675387 -0.25242292368480923 0.9844374143636669" pbc="T T F"
Cu       0.00000000      -0.00000000       8.00000000        4      -0.03094554       0.05113300      -0.28749592       0.01161894
Cu       2.56937568      -0.00000000       8.00000000        4      -0.01844366       0.06155288      -0.29144146      -0.00001711
Cu       5.13875136       0.00000000       8.00000000        4       0.05216467      -0.00086616      -0.27514807      -0.00169876
Cu       1.28468784       2.22514461       8.00000000        4      -0.01763549      -0.00190061      -0.33783037      -0.00896934
Cu       3.85406352       2.22514461       8.00000000        4      -0.01150011       0.02780408      -0.29890050       0.00876383
Cu       6.42343920       2.22514461       8.00000000        4       0.03173878       0.02770802      -0.34910217      -0.02866890
Cu       2.56937568       4.45028922       8.00000000        4      -0.01167991      -0.02314845      -0.30456348      -0.01280197
Cu       5.13875136       4.45028922       8.00000000        4       0.00760338      -0.08579724      -0.29912953       0.01001808
Cu       7.70812704       4.45028922       8.00000000        4       0.00724046      -0.08854882      -0.29601071       0.01583930
Cu       1.28468784       0.74171487      10.09788646        3       0.06399418       0.04985493      -0.03579117      -0.00919255
Cu       3.85406352       0.74171487      10.09788646        3      -0.05428858       0.00868319      -0.04193834       0.00672136
Cu       6.42343920       0.74171487      10.09788646        3      -0.01682692      -0.00075164      -0.11046778       0.02970563
Cu       2.56937568       2.96685948      10.09788646        3      -0.01075364       0.01227890       0.02422242      -0.00206138
Cu       5.13875136       2.96685948      10.09788646        3      -0.00140265       0.03037764      -0.06211725      -0.00524971
Cu       7.70812704       2.96685948      10.09788646        3       0.00338039      -0.01160822      -0.03362636      -0.00834138
Cu       3.85406352       5.19200409      10.09788646        3      -0.04895867      -0.03743966      -0.05060314      -0.00130748
Cu       6.42343920       5.19200409      10.09788646        3      -0.01355145       0.02828257      -0.02271975      -0.00937217
Cu       8.99281488       5.19200409      10.09788646        3       0.05519172       0.00924239      -0.06282412       0.00351149
Cu      -0.00001456       1.48341895      12.22216237        2       0.03745553       0.05015406       0.02681851      -0.03302400
Cu       2.56938632       1.48343972      12.22228812        2      -0.02777126      -0.03053318       0.04593592       0.01401553
Cu       5.13868200       1.48341490      12.22229490        2       0.00367343       0.03859090       0.08382696      -0.01645769
Cu       1.28472730       3.70860469      12.22229670        2       0.03376656      -0.00179759      -0.00373718       0.00502147
Cu       3.85404919       3.70853617      12.22226661        2      -0.01026923       0.02164422       0.01943200      -0.01764251
Cu       6.42343137       3.70855859      12.22219237        2      -0.01871804       0.00164464       0.01337247       0.01772013
Cu       2.56933175       5.93372331      12.22226822        2      -0.01966191      -0.11242521       0.08322033      -0.01597330
Cu       5.13873976       5.93371007      12.22221793        2       0.04935746      -0.03059300       0.09147388       0.00855644
Cu       7.70811165       5.93376676      12.22227910        2      -0.03420545      -0.02814804       0.12073548      -0.02047927
Cu       0.00003176       0.00005032      14.34901118        1       0.25853262      -0.30102016       0.31921948       0.03552761
Cu       2.56930125       0.00001804      14.34916312        1      -0.03462922       0.06082272       0.33827746      -0.04467049
Cu       5.13864853       0.00002580      14.34922433        1      -0.13948480      -0.20867664       0.36420487       0.08852728
Cu       1.28470809       2.22517124      14.34907163        1       0.27737130       0.08579312       0.27887435      -0.10077093
Cu       3.85409307       2.22518508      14.34928516        1      -0.30750419       0.13242147       0.19500459      -0.02484973
Cu       6.42349021       2.22507450      14.34904494        1       0.01339604       0.80548691       0.11826477       0.01882835
Cu       2.56959011       4.45037276      14.34913478        1       0.01855679      -0.22569074       0.22264557      -0.00018440
Cu       5.13896751       4.45026038      14.34907842        1      -0.06106427       0.00500491       0.34050037      -0.06020157
Cu       7.70816084       4.45028686      14.34912297        1       0.01389757      -0.01969079       0.33598284      -0.05818476
O        6.41316381       0.56584357      16.16755553        0       0.01625113      -0.26640465      -0.06384180      -0.45035900
C        6.38533146       1.96009258      16.42433921        0       0.01146421       0.24917123       0.00116987       0.13512757
H        5.43455265       2.25748072      16.87156163        0      -0.04292013       0.01341111       0.01983317       0.08789381
H        7.21125160       2.24943833      17.07616121        0       0.03072765       0.01078239       0.02407127       0.07151074
H        7.12272176       1.25892381      15.59802912        0      -0.01618445      -0.00235386       0.01098232       0.36157086
