29
Lattice="8.493 0.0 0.0 4.2465 6.005457892617349 0.0 0.0 0.0 20.003638595078232" Properties=species:S:1:pos:R:3:tags:I:1:forces:R:3:charge:R:1 charge=0 spin=0 energy=-2349.702255685562 free_energy=-2349.702255685562 stress="0.030138868374130406 0.00023214474610546579 -2.897204427615819e-05 0.00023214474610546579 0.003226728485801354 0.0022635762394670384 -2.897204427615819e-05 0.0022635762394670384 -0.000593134553967615" dipole="0.1536499332528005 0.6418932971432677 0.825937877401964" pbc="T T T"
Fe       0.00000000       0.00000000       8.00000000        3      -0.00976654       0.09208831      -0.08753515      -0.00409449
Fe       2.83100000       0.00000000       8.00000000        3       0.00037455       0.06164082      -0.06445603      -0.00276953
Fe       5.66200000       0.00000000       8.00000000        3       0.00811612       0.12947152      -0.14044220      -0.00377964
Fe       1.41550000       2.00181930       8.00000000        3      -0.03468393       0.06879819      -0.12014798      -0.00363068
Fe       4.24650000       2.00181930       8.00000000        3       0.03978861       0.09198249      -0.10776070      -0.00368161
Fe       7.07750000       2.00181930       8.00000000        3      -0.02190304      -0.01202969      -0.02077286      -0.00467278
Fe       2.83100000       4.00363860       8.00000000        3      -0.02793470       0.16598969      -0.14516035      -0.00435581
Fe       5.66200000       4.00363860       8.00000000        3      -0.05088723      -0.00705426      -0.00706226      -0.00426722
Fe       8.49300000       4.00363860       8.00000000        3       0.02879852       0.00587989      -0.05258548      -0.00394268
Fe       0.00000000       2.00181930      10.00181930        2       0.02531401       0.00573595       0.18867355       0.00312500
Fe       2.83100000       2.00181930      10.00181930        2       0.05261719      -0.00655372      -0.30008687       0.00486769
Fe       5.66200000       2.00181930      10.00181930        2      -0.13217333       0.30847176       0.07574545       0.00330289
Fe       1.41550000       4.00363860      10.00181930        2       0.14367938       0.05622142      -0.13419698       0.00178122
Fe       4.24650000       4.00363860      10.00181930        2      -0.08475113       0.20679606      -0.11761594       0.00131198
Fe       7.07750000       4.00363860      10.00181930        2      -0.01270961      -0.21532720      -0.08662413       0.01312831
Fe       2.83100000       6.00545789      10.00181930        2      -0.01127152       0.14289345      -0.01718899       0.00401386
Fe       5.66200000       6.00545789      10.00181930        2       0.02290337      -0.35172512      -0.20112764       0.00197018
Fe       8.49300000       6.00545789      10.00181930        2       0.08334309      -0.37381369      -0.20746021       0.00233530
Fe       0.12726763       0.56517577      11.84049183        1      -0.18986430       0.06504811      -0.15264149      -0.00087857
Fe       2.84603649       0.57870060      11.81307720        1       0.13262741      -0.42800241       0.72276556      -0.03436032
Fe       5.44068274       0.67079957      11.88013672        1       0.04182898      -0.07768646      -0.03695962      -0.00096492
Fe       1.51521491       2.57650792      11.83905801        1       0.09128003      -0.12621557       0.21123692       0.00133025
Fe       4.05513961       2.63868269      11.86595073        1       0.03828406      -0.17229460       0.18377497       0.00291181
Fe       7.08804888       2.40112033      11.85954878        1      -0.01246644       1.13916531       0.93152669       0.04677950
Fe       2.68660770       4.69551046      11.88982110        1      -0.12980470       0.01053550      -0.14947741      -0.00239038
Fe       5.56870126       4.57582606      11.89265766        1       0.90911440      -0.27400758       1.39864154       0.04381022
Fe       8.63823459       4.57932554      11.90274250        1      -0.85516891      -0.20146733       1.36856403       0.04135290
O        7.07729335       4.16633523      13.11084576        0       0.01014260      -0.00421904      -0.01383812      -0.38408365
H        7.07743048       5.74794556      13.29156009        0      -0.00461357      -0.00020276       0.00586826       0.28585120
