4
Lattice="2.5455844122715714 0.0 0.0 1.2727922061357857 2.2045407685048604 0.0 0.0 0.0 22.235382907247963" Properties=species:S:1:pos:R:3:tags:I:1:forces:R:3 energy=-26471.280568626054 stress="1.2150364236115367 -4.5650592762477616e-09 -6.455269609906169e-09 -4.5650592762477616e-09 1.21503641320791 1.270227746788308e-08 -6.455269609906169e-09 1.270227746788308e-08 1.2255218667743781" pbc="T T F"
Cu       0.00000007      -0.00000028       8.05206800        4       0.00000003       0.00000005       0.00524271
Cu       1.27279235       0.73484671      10.08258521        3      -0.00000010       0.00000016       0.00717211
Cu       0.00000007       1.46969399      12.15279706        2      -0.00000007      -0.00000011      -0.00716541
Cu      -0.00000028       0.00000035      14.18331554        1       0.00000013      -0.00000010      -0.00524941

