31
Lattice="8.493 0.0 0.0 4.2465 6.005457892617349 0.0 0.0 0.0 20.003638595078232" Properties=species:S:1:pos:R:3:tags:I:1:forces:R:3:charge:R:1 charge=0 spin=0 energy=-2432.920413857398 free_energy=-2432.920413857398 stress="0.026695024529439254 0.0011878510827328446 0.0028147604052961295 0.0011878510827328446 -0.0010031646121420722 5.1847469427819845e-05 0.0028147604052961295 5.1847469427819845e-05 -0.0039492087072784616" dipole="0.4402178596405235 0.35074488845727436 2.1676896818662663" pbc="T T T"
Fe       0.00000000       0.00000000       8.00000000        3       0.02830114      -0.07590848      -0.03553857      -0.00626434
Fe       2.83100000       0.00000000       8.00000000        3       0.04773678      -0.05378114      -0.14079723      -0.00601997
Fe       5.66200000       0.00000000       8.00000000        3       0.01293092      -0.06119801      -0.04993522      -0.00602962
Fe       1.41550000       2.00181930       8.00000000        3      -0.04801785      -0.09199684      -0.08610667      -0.00692300
Fe       4.24650000       2.00181930       8.00000000        3      -0.03915766      -0.05190170      -0.11674199      -0.00589421
Fe       7.07750000       2.00181930       8.00000000        3       0.07688227      -0.01780815      -0.01099587      -0.00579398
Fe       2.83100000       4.00363860       8.00000000        3      -0.01992347      -0.06803067      -0.12297849      -0.00613494
Fe       5.66200000       4.00363860       8.00000000        3       0.03371341      -0.02620213      -0.07158768      -0.00561300
Fe       8.49300000       4.00363860       8.00000000        3      -0.01941186      -0.06962239      -0.05935357      -0.00671954
Fe       0.00000000       2.00181930      10.00181930        2       0.01326918      -0.31176444       0.02897615      -0.00004520
Fe       2.83100000       2.00181930      10.00181930        2      -0.19243531       0.17086922      -0.55207272       0.00282753
Fe       5.66200000       2.00181930      10.00181930        2       0.04523610       0.08852426      -0.40981174      -0.00282691
Fe       1.41550000       4.00363860      10.00181930        2       0.07264137       0.16588178      -0.08314797       0.00017688
Fe       4.24650000       4.00363860      10.00181930        2       0.07381083       0.03480881       0.08248121      -0.00131277
Fe       7.07750000       4.00363860      10.00181930        2      -0.03703065      -0.31626162       0.11109271      -0.00028469
Fe       2.83100000       6.00545789      10.00181930        2       0.13662524       0.34401667       0.31605577      -0.00075276
Fe       5.66200000       6.00545789      10.00181930        2       0.08551205      -0.27357525       0.05440456       0.00011023
Fe       8.49300000       6.00545789      10.00181930        2      -0.07078349       0.18973533      -0.58180114       0.00107258
Fe       0.01583942      -0.52786720      11.82091579        1      -0.09494145       0.13278255      -0.37044207      -0.00954265
Fe       3.03299751      -0.65326763      11.87505361        1       0.03203019      -0.15405334       0.24559607       0.04343375
Fe       5.61331729      -0.55808429      11.83280806        1       0.11206019      -0.26509395       0.10303551       0.00484370
Fe       1.56814803       1.33770393      11.87761298        1      -0.27894596       0.18555475       0.16003692       0.02314779
Fe       4.10870195       1.42616631      11.81132008        1       0.88876139       1.11892335      -1.58809022       0.05065813
Fe       7.03048324       1.50753747      11.88862050        1       0.43972052      -0.08975399       0.33150171       0.00542814
Fe       2.81956076       3.46059003      11.83442852        1      -0.57505501       0.64563299      -0.22906344       0.00503159
Fe       5.62724927       3.43485220      11.91727878        1       0.40363765       0.04037861       2.26741027       0.00449734
Fe       8.74910444       3.35874663      11.84773091        1       0.16520207      -0.09749346       0.26842309       0.00569292
N        6.16073213       2.85510644      13.52389559        0       0.17237746       0.04162743       0.81532726      -0.31547431
H        4.89035398       1.95600532      13.37912396        0      -0.00054102      -0.00017989       0.00035094       0.36830674
H        6.37262443       2.90441693      14.52946464        0      -0.17157554      -0.04005031      -0.81434044       0.25561245
O        3.74130806       1.14306471      13.24368219        0      -0.00066309      -0.00051162      -0.00008682      -0.38520788
