29
Lattice="8.493 0.0 0.0 4.2465 6.005457892617349 0.0 0.0 0.0 20.003638595078232" Properties=species:S:1:pos:R:3:tags:I:1:forces:R:3 charge=0 spin=0 energy=-190.6893792550178 free_energy=-190.6893792550178 stress="0.044747378677129745 -0.00012513632827904075 0.00032282547908835113 -0.00012513632827904075 0.030258359387516975 -0.0006735607166774571 0.00032282547908835113 -0.0006735607166774571 0.009005029685795307" pbc="T T T"
Fe       0.00000000       0.00000000       8.00000000        3       0.06695101       0.03131933       0.55735713
Fe       2.83100000       0.00000000       8.00000000        3      -0.06739563       0.03038007       0.49443680
Fe       5.66200000       0.00000000       8.00000000        3       0.00103411       0.02265340       0.45802617
Fe       1.41550000       2.00181930       8.00000000        3       0.00192083       0.02612350       0.65759468
Fe       4.24650000       2.00181930       8.00000000        3       0.00452752       0.01729844       0.53989798
Fe       7.07750000       2.00181930       8.00000000        3       0.02607433       0.00842235       0.50927418
Fe       2.83100000       4.00363860       8.00000000        3       0.07342571       0.02309038       0.58272827
Fe       5.66200000       4.00363860       8.00000000        3      -0.01725627       0.02685777       0.48800719
Fe       8.49300000       4.00363860       8.00000000        3      -0.05283765       0.04154919       0.52254182
Fe       0.00000000       2.00181930      10.00181930        2      -0.29797974       0.14966513       0.01977575
Fe       2.83100000       2.00181930      10.00181930        2       0.33415765       0.04787550       0.05001913
Fe       5.66200000       2.00181930      10.00181930        2      -0.00781441      -0.24802364      -0.82195950
Fe       1.41550000       4.00363860      10.00181930        2      -0.01106719       0.20458077      -0.87201566
Fe       4.24650000       4.00363860      10.00181930        2       0.30552870      -0.24318317      -0.54284030
Fe       7.07750000       4.00363860      10.00181930        2      -0.27329606      -0.27643692      -0.56717575
Fe       2.83100000       6.00545789      10.00181930        2      -0.00502467      -0.09976880      -0.98021334
Fe       5.66200000       6.00545789      10.00181930        2       0.04085468      -0.21332768      -0.10647538
Fe       8.49300000       6.00545789      10.00181930        2      -0.03431768      -0.10581511      -1.07430351
Fe      -0.10439450       0.10737112      11.83704264        1      -0.35268250       0.22904427      -0.03171751
Fe       2.94279823       0.11575130      11.83552007        1       0.39560857       0.29315826      -0.02274871
Fe       5.64951576      -0.09061862      11.83570786        1      -0.03382536      -0.18935359      -0.00602827
Fe       1.41469069       1.95802921      11.86261827        1      -0.01224791      -0.30097011      -0.04689211
Fe       4.39455489       2.04929411      11.94968248        1       0.28488454       0.16125052       0.07025427
Fe       6.96489646       2.00080232      11.95685735        1      -0.30624953       0.19484149       0.02724078
Fe       2.79969095       3.96872926      11.82686224        1       0.00386008      -0.21313708      -0.06080993
Fe       5.67241707       4.28422493      11.89620977        1       0.03528938       0.47811243       0.03336949
Fe       8.53904338       3.96561690      11.82461857        1      -0.02528718      -0.22700384      -0.01755311
O        5.70875631       2.84018977      13.23297820        0      -0.09201166       0.26123244       0.06098842
H        5.70208609       3.02181315      14.18911004        0       0.01517617      -0.13043532       0.07922124
