28
Lattice="8.493 0.0 0.0 4.2465 6.005457892617349 0.0 0.0 0.0 20.003638595078232" Properties=species:S:1:pos:R:3:tags:I:1:forces:R:3 charge=0 spin=0 energy=-183.61227087686288 free_energy=-183.61227087686288 stress="0.04325568675994873 -0.00027968306676484644 -1.2882972910688295e-08 -0.00027968306676484644 0.030123384669423103 -4.210041026908584e-08 -1.2882972910688295e-08 -4.210041026908584e-08 0.008910831063985825" pbc="T T T"
Fe       0.00000000       0.00000000       8.00000000        3       0.06727798      -0.02911568       0.61472225
Fe       2.83100000       0.00000000       8.00000000        3      -0.04249648      -0.00925215       0.55877399
Fe       5.66200000       0.00000000       8.00000000        3       0.00131552       0.04802169       0.30592427
Fe       1.41550000       2.00181930       8.00000000        3      -0.00000022       0.00000072       0.66072959
Fe       4.24650000       2.00181930       8.00000000        3       0.03244372      -0.00149361       0.45318478
Fe       7.07750000       2.00181930       8.00000000        3      -0.03244678       0.00149746       0.45318326
Fe       2.83100000       4.00363860       8.00000000        3      -0.06727754       0.02911924       0.61472207
Fe       5.66200000       4.00363860       8.00000000        3      -0.00131606      -0.04801945       0.30592597
Fe       8.49300000       4.00363860       8.00000000        3       0.04249929       0.00925484       0.55877209
Fe       0.00000000       2.00181930      10.00181930        2      -0.80604148      -0.02231573      -0.21386570
Fe       2.83100000       2.00181930      10.00181930        2       0.80604035       0.02229600      -0.21384469
Fe       5.66200000       2.00181930      10.00181930        2      -0.00000297      -0.00000350      -0.60202414
Fe       1.41550000       4.00363860      10.00181930        2      -0.04131505       0.07536452       0.36566332
Fe       4.24650000       4.00363860      10.00181930        2       0.29770634       0.07651592      -1.06635308
Fe       7.07750000       4.00363860      10.00181930        2      -0.24650207       0.04108389      -1.05355465
Fe       2.83100000       6.00545789      10.00181930        2      -0.29771262      -0.07650912      -1.06635475
Fe       5.66200000       6.00545789      10.00181930        2       0.04132226      -0.07537894       0.36565179
Fe       8.49300000       6.00545789      10.00181930        2       0.24650019      -0.04110664      -1.05353606
Fe      -0.24009259       0.19855660      11.84068420        1      -0.02561977      -0.01484662       0.01352948
Fe       3.08028172       0.16797746      11.84289768        1       0.02948438      -0.00663748       0.02693797
Fe       5.67469648      -0.46758865      11.86505037        1      -0.00730235       0.03509042      -0.03081459
Fe       1.41549715       2.00182518      11.76555588        1      -0.00000131       0.00001052       0.00925137
Fe       4.49408645       1.99634232      11.98060407        1      -0.01035952       0.00517841       0.01234840
Fe       6.82991535       2.00729664      11.98060327        1       0.01036491      -0.00516894       0.01234585
Fe       3.07109451       3.80508053      11.84068475        1       0.02562226       0.01484420       0.01352481
Fe       5.64930685       4.47122657      11.86504966        1       0.00730782      -0.03508757      -0.03081230
Fe       8.24371483       3.83567249      11.84289845        1      -0.02949291       0.00665774       0.02693423
H        5.66200071       2.00181928      13.19102889        0       0.00000232      -0.00000026      -0.04096592
