42
Lattice="7.708127040155146 0.0 0.0 3.854063520077573 6.675433832372109 0.0 0.0 0.0 22.29365937364323" Properties=species:S:1:pos:R:3:initial_charges:R:1:tags:I:1:forces:R:3 energy=-4706.896580175241 free_energy=-4706.896580175241 stress="-0.013451930868172465 -7.27148293672174e-07 -6.826731467101261e-07 -7.27148293672174e-07 -0.013473775987365513 2.2201983121369e-05 -6.826731467101261e-07 2.2201983121369e-05 -0.015296000914147666" dipole="1.0918452702101065 0.6316129686022701 1.0965015946304337" pbc="T T F"
Cu      -0.00000000       0.00000000       8.00000000      -0.00230365        4      -0.02987762      -0.01745388      -0.29618120
Cu       2.56937568      -0.00000000       8.00000000       0.00860874        4      -0.00000369       0.02063305      -0.29333953
Cu       5.13875136       0.00000000       8.00000000      -0.00229829        4       0.02988093      -0.01739704      -0.29616231
Cu       1.28468784       2.22514461       8.00000000       0.00854376        4       0.01800195      -0.01010650      -0.29316981
Cu       3.85406352       2.22514461       8.00000000       0.00854242        4      -0.01801669      -0.01010525      -0.29320705
Cu       6.42343920       2.22514461       8.00000000      -0.01171028        4       0.00001091      -0.00188216      -0.28132577
Cu       2.56937568       4.45028922       8.00000000      -0.00230219        4       0.00005505       0.03437386      -0.29633991
Cu       5.13875136       4.45028922       8.00000000      -0.01171817        4      -0.00191251       0.00098187      -0.28168912
Cu       7.70812704       4.45028922       8.00000000      -0.01171939        4       0.00185587       0.00094104      -0.28164301
Cu       1.28468784       0.74171487      10.09788646      -0.02142416        3      -0.03232614      -0.01905234      -0.04940231
Cu       3.85406352       0.74171487      10.09788646      -0.02143785        3       0.03240212      -0.01902863      -0.04927050
Cu       6.42343920       0.74171487      10.09788646      -0.00124269        3      -0.00011154      -0.04424693      -0.03541245
Cu       2.56937568       2.96685948      10.09788646      -0.02135741        3       0.00002074       0.03730772      -0.04968787
Cu       5.13875136       2.96685948      10.09788646       0.01908116        3       0.03069690       0.01784975      -0.10502541
Cu       7.70812704       2.96685948      10.09788646       0.01910660        3      -0.03069703       0.01796165      -0.10516224
Cu       3.85406352       5.19200409      10.09788646      -0.00138075        3      -0.03791841       0.02224345      -0.03510435
Cu       6.42343920       5.19200409      10.09788646       0.01887593        3       0.00003826      -0.03527181      -0.10440700
Cu       8.99281488       5.19200409      10.09788646      -0.00137453        3       0.03784566       0.02229868      -0.03507955
Cu      -0.00001456       1.48341895      12.22216237      -0.02353347        2       0.00020623      -0.06889791       0.09537729
Cu       2.56938632       1.48343972      12.22228812       0.03952962        2      -0.00012218       0.00016122       0.04433340
Cu       5.13868200       1.48341490      12.22229490      -0.02351929        2       0.00013004      -0.06897890       0.09518053
Cu       1.28472730       3.70860469      12.22229670      -0.02349938        2       0.05970130       0.03398333       0.09488136
Cu       3.85404919       3.70853617      12.22226661      -0.02347789        2      -0.05980191       0.03422938       0.09503648
Cu       6.42343137       3.70855859      12.22219237      -0.03736210        2       0.00017981      -0.00022174      -0.02060225
Cu       2.56933175       5.93372331      12.22226822       0.00689116        2       0.00010825       0.00012969      -0.00213877
Cu       5.13873976       5.93371007      12.22221793      -0.02330249        2      -0.05979153       0.03474883       0.09545525
Cu       7.70811165       5.93376676      12.22227910      -0.02330646        2       0.05976598       0.03448679       0.09541436
Cu       0.00003176       0.00005032      14.34901118      -0.06329038        1      -0.01710948      -0.01106723       0.35873673
Cu       2.56930125       0.00001804      14.34916312      -0.02696520        1       0.00033439       0.24152058       0.26283784
Cu       5.13864853       0.00002580      14.34922433      -0.06334865        1       0.01742804      -0.01085110       0.35840958
Cu       1.28470809       2.22517124      14.34907163      -0.02704595        1       0.21009058      -0.12075916       0.26246956
Cu       3.85409307       2.22518508      14.34928516      -0.02704629        1      -0.20995878      -0.12097774       0.26214196
Cu       6.42349021       2.22507450      14.34904494       0.18609212        1      -0.00019871      -0.21960188       0.24304681
Cu       2.56959011       4.45037276      14.34913478      -0.06283491        1      -0.00056673       0.02019072       0.35824449
Cu       5.13896751       4.45026038      14.34907842       0.18387681        1      -0.18708556       0.10849281       0.24369496
Cu       7.70816084       4.45028686      14.34912297       0.18406383        1       0.18706315       0.10864078       0.24350930
O        6.42381433       3.70500524      15.77042438      -0.43819744        0      -0.00150092       0.02180930       0.01835254
C        6.42348934       3.70952426      17.18989479       0.17815681        0       0.00081662       0.00573676       0.02877490
H        7.31573127       3.19659157      17.56524469       0.04527924        0      -0.03096515       0.00605772      -0.00745496
H        6.42339286       4.73942387      17.56457480       0.04508138        0       0.00079866      -0.03376088      -0.03498596
H        5.53110871       3.19680301      17.56517364       0.04526967        0       0.03053315       0.00488211      -0.00910602
H        5.73125102       3.38767774      15.31446236       0.04218413        0      -0.01348769      -0.00785787       0.03055071
