42
Lattice="7.708127040155146 0.0 0.0 3.854063520077573 6.675433832372109 0.0 0.0 0.0 22.29365937364323" Properties=species:S:1:pos:R:3:tags:I:1:forces:R:3:charge:R:1 energy=-4721.471862455399 free_energy=-4721.471862455399 stress="-0.013648188062060185 -0.0004668109677485566 -3.6595025730172656e-05 -0.0004668109677485566 -0.013120852672341678 2.030412070166347e-05 -3.6595025730172656e-05 2.030412070166347e-05 -0.015001411380923228" dipole="1.0752438721963495 0.6594724397951618 1.7316519052376038" pbc="T T F"
Cu      -0.00000000       0.00000000       8.00000000        4      -0.05312664      -0.02894150      -0.32693877      -0.01660151
Cu       2.56937568      -0.00000000       8.00000000        4       0.04468803      -0.00881197      -0.31418731       0.00440536
Cu       5.13875136       0.00000000       8.00000000        4       0.01224082      -0.01926089      -0.34998228      -0.01323242
Cu       1.28468784       2.22514461       8.00000000        4       0.00777373       0.04295968      -0.31860489       0.00353436
Cu       3.85406352       2.22514461       8.00000000        4       0.00133913       0.00421011      -0.31852024      -0.01080229
Cu       6.42343920       2.22514461       8.00000000        4      -0.00591197      -0.03597790      -0.29031915      -0.00678971
Cu       2.56937568       4.45028922       8.00000000        4      -0.00553628       0.02036029      -0.35482759      -0.01349881
Cu       5.13875136       4.45028922       8.00000000        4      -0.04249936       0.00685982      -0.29109878      -0.00660844
Cu       7.70812704       4.45028922       8.00000000        4       0.05142154       0.02645329      -0.33070729      -0.01956032
Cu       1.28468784       0.74171487      10.09788646        3      -0.04687781      -0.02673843       0.00919146       0.00264994
Cu       3.85406352       0.74171487      10.09788646        3       0.01054678      -0.01815667      -0.00498924      -0.00612663
Cu       6.42343920       0.74171487      10.09788646        3       0.02744156      -0.05108157      -0.02417523       0.00609831
Cu       2.56937568       2.96685948      10.09788646        3      -0.00390645       0.01926341      -0.00107167      -0.00687191
Cu       5.13875136       2.96685948      10.09788646        3      -0.03751899      -0.01726853      -0.08015361       0.02876768
Cu       7.70812704       2.96685948      10.09788646        3       0.03291320       0.03724522      -0.05848885       0.00926907
Cu       3.85406352       5.19200409      10.09788646        3      -0.03125850       0.04307080      -0.02390126       0.00474456
Cu       6.42343920       5.19200409      10.09788646        3       0.05177938       0.00983582      -0.05698049       0.00968550
Cu       8.99281488       5.19200409      10.09788646        3      -0.02957722      -0.01583933       0.03028299      -0.00284697
Cu      -0.00001456       1.48341895      12.22216237        2       0.01435397      -0.03177652       0.13848848      -0.00275679
Cu       2.56938632       1.48343972      12.22228812        2       0.01721129       0.00889578       0.03479130       0.01187461
Cu       5.13868200       1.48341490      12.22229490        2      -0.03979375      -0.02295593       0.10934460       0.00009883
Cu       1.28472730       3.70860469      12.22229670        2       0.00282830      -0.00535383       0.08254075       0.00743061
Cu       3.85404919       3.70853617      12.22226661        2      -0.03876974      -0.02270866       0.11254963       0.00098342
Cu       6.42343137       3.70855859      12.22219237        2       0.05148101       0.02453410       0.12061354      -0.00691444
Cu       2.56933175       5.93372331      12.22226822        2       0.03138978       0.01965959       0.04787084       0.00714094
Cu       5.13873976       5.93371007      12.22221793        2      -0.02402978       0.03309612       0.13579637      -0.00327990
Cu       7.70811165       5.93376676      12.22227910        2      -0.00022574       0.00893878       0.08776325       0.00868240
Cu       0.00003176       0.00005032      14.34901118        1      -0.00648761      -0.00090844       0.30157698      -0.06919988
Cu       2.56930125       0.00001804      14.34916312        1       0.08464575       0.12186154       0.29968723      -0.04247247
Cu       5.13864853       0.00002580      14.34922433        1      -0.08809997      -0.12181061       0.30874007      -0.06180690
Cu       1.28470809       2.22517124      14.34907163        1       0.13888842       0.00953572       0.30592560      -0.04488785
Cu       3.85409307       2.22518508      14.34928516        1      -0.33827388      -0.20034582       0.10751706      -0.06073239
Cu       6.42349021       2.22507450      14.34904494        1       0.09632689      -0.16620493       0.29227817       0.06280356
Cu       2.56959011       4.45037276      14.34913478        1      -0.14128629      -0.01587222       0.31437775      -0.06723662
Cu       5.13896751       4.45026038      14.34907842        1      -0.07049654       0.20045963       0.23702649       0.05709327
Cu       7.70816084       4.45028686      14.34912297        1       0.32134648       0.18495904       0.06348140      -0.01788536
O        5.78747364       3.35702275      16.34435131        0      -0.01847087      -0.00910895       0.01508476      -0.45357046
C        6.56888078       3.76927938      17.47447955        0       0.01765606      -0.01161228       0.00378202       0.17244002
H        7.56917286       3.33939194      17.38226890        0      -0.00565125       0.01467833      -0.00490361       0.05864831
H        6.64172057       4.85979707      17.49456654        0      -0.01502423       0.00879287       0.00830271       0.05275613
H        6.10122324       3.41335839      18.39440152        0       0.00660678      -0.00811818      -0.00052613       0.04121616
H        4.92853988       3.02872842      16.63963646        0       0.01994400      -0.00681676      -0.01663706       0.38335899
