42
Lattice="7.708127040155146 0.0 0.0 3.854063520077573 6.675433832372109 0.0 0.0 0.0 22.29365937364323" Properties=species:S:1:pos:R:3:tags:I:1:forces:R:3:charge:R:1 energy=-4720.872010041073 free_energy=-4720.872010041073 stress="-0.0148779522479618 0.0002148054984575178 -0.0002457297762731055 0.0002148054984575178 -0.015078561733100761 -3.453064580496908e-05 -0.0002457297762731055 -3.453064580496908e-05 -0.019666426011485372" dipole="1.3457881610451248 0.7811759405860298 1.6930091302198984" pbc="T T F"
Cu      -0.00000000       0.00000000       8.00000000        4      -0.03136436      -0.01974960      -0.35391387      -0.02523183
Cu       2.56937568      -0.00000000       8.00000000        4      -0.02071346       0.03235344      -0.29935197       0.00801493
Cu       5.13875136       0.00000000       8.00000000        4       0.05387797      -0.00677365      -0.32649043      -0.01121114
Cu       1.28468784       2.22514461       8.00000000        4       0.01710603      -0.03140687      -0.29982173       0.00747248
Cu       3.85406352       2.22514461       8.00000000        4      -0.02416278      -0.00851365      -0.32530939       0.00544841
Cu       6.42343920       2.22514461       8.00000000        4       0.00849611      -0.07618174      -0.29715853      -0.00909591
Cu       2.56937568       4.45028922       8.00000000        4       0.02513477       0.04664331      -0.33210525      -0.01261351
Cu       5.13875136       4.45028922       8.00000000        4      -0.06857388       0.04307611      -0.30114345      -0.00914793
Cu       7.70812704       4.45028922       8.00000000        4       0.04421475       0.02228843      -0.26706284      -0.01122553
Cu       1.28468784       0.74171487      10.09788646        3      -0.08083005      -0.05004188      -0.02469074      -0.00304654
Cu       3.85406352       0.74171487      10.09788646        3       0.08575177      -0.01586801      -0.01519306      -0.00913828
Cu       6.42343920       0.74171487      10.09788646        3      -0.00957994      -0.02550146       0.00087588       0.00107914
Cu       2.56937568       2.96685948      10.09788646        3       0.03461095       0.08309163      -0.01454883      -0.00893109
Cu       5.13875136       2.96685948      10.09788646        3       0.01609898       0.01401487      -0.06058970       0.00269872
Cu       7.70812704       2.96685948      10.09788646        3      -0.05454556       0.02993442      -0.09341512       0.02363470
Cu       3.85406352       5.19200409      10.09788646        3      -0.02344784       0.00246560       0.00543360      -0.00037160
Cu       6.42343920       5.19200409      10.09788646        3      -0.00281707      -0.05908480      -0.08886717       0.02186569
Cu       8.99281488       5.19200409      10.09788646        3       0.02202090       0.01568976      -0.02199774       0.00799993
Cu      -0.00001456       1.48341895      12.22216237        2       0.04595894      -0.10449982       0.05866817      -0.01023562
Cu       2.56938632       1.48343972      12.22228812        2      -0.00815141      -0.00568879      -0.03276117       0.01718551
Cu       5.13868200       1.48341490      12.22229490        2      -0.03815223      -0.10348000       0.05259522       0.00251003
Cu       1.28472730       3.70860469      12.22229670        2       0.08914609       0.02785622       0.07695837      -0.00440993
Cu       3.85404919       3.70853617      12.22226661        2      -0.10770332       0.01589753       0.04972252       0.00223934
Cu       6.42343137       3.70855859      12.22219237        2       0.02418014       0.01151968       0.04737053      -0.02098004
Cu       2.56933175       5.93372331      12.22226822        2       0.00405015       0.00731082      -0.06741928      -0.00582542
Cu       5.13873976       5.93371007      12.22221793        2      -0.06757330       0.09345494       0.05634443      -0.00898703
Cu       7.70811165       5.93376676      12.22227910        2       0.07168086       0.06445962       0.07904705      -0.00308364
Cu       0.00003176       0.00005032      14.34901118        1       0.01876443       0.00365299       0.38660987      -0.07298723
Cu       2.56930125       0.00001804      14.34916312        1      -0.02143642       0.30362557       0.27455043      -0.03347343
Cu       5.13864853       0.00002580      14.34922433        1       0.01391452       0.03796614       0.35644888      -0.07761728
Cu       1.28470809       2.22517124      14.34907163        1       0.26173020      -0.17403994       0.26978986      -0.03142046
Cu       3.85409307       2.22518508      14.34928516        1      -0.25031902      -0.13870826       0.32207126      -0.11590312
Cu       6.42349021       2.22507450      14.34904494        1       0.14714790      -0.87901220      -0.36978146       0.03574606
Cu       2.56959011       4.45037276      14.34913478        1       0.05188339      -0.00699868       0.36068157      -0.07801363
Cu       5.13896751       4.45026038      14.34907842        1      -0.71745183       0.61388459      -0.42352955       0.02385223
Cu       7.70816084       4.45028686      14.34912297        1       0.46787762       0.28115718      -0.15784401       0.11423623
O        6.48864281       3.72730174      15.88730489        0       0.10543869       0.03399562       0.37372277      -0.42239084
C        6.43878411       3.71594872      17.30451910        0      -0.27859383      -0.10131564       0.16404312       0.16642173
H        7.32334658       3.19145410      17.64841103        0       0.13559002      -0.04233471       0.34585401       0.06364269
H        6.42168979       4.75017012      17.63828865        0       0.03043408       0.07823521       0.30250372       0.06194578
H        5.52345288       3.19006793      17.59981807        0       0.17252180       0.08981739       0.20903454       0.04945248
H        5.67574288       3.31725842      15.51146943        0      -0.14221476      -0.10319136       0.38066950       0.36989491
