41
Lattice="7.708127040155146 0.0 0.0 3.854063520077573 6.675433832372109 0.0 0.0 0.0 22.29365937364323" Properties=species:S:1:pos:R:3:tags:I:1:forces:R:3:charge:R:1 energy=-4703.4697162050925 free_energy=-4703.4697162050925 stress="-0.013859819896251197 0.0010933550649301915 -0.00011117674428010693 0.0010933550649301915 -0.012763293234103938 3.348398753334742e-05 -0.00011117674428010693 3.348398753334742e-05 -0.015142259467903913" dipole="1.0542505902114798 0.6590283553716954 1.629286409624733" pbc="T T F"
Cu       0.00000000       0.00000000       8.00000000        4      -0.06599536      -0.02672016      -0.31904039      -0.00120915
Cu       2.56937568       0.00000000       8.00000000        4       0.05498235      -0.04293514      -0.30076603       0.00882456
Cu       5.13875136       0.00000000       8.00000000        4      -0.00025520      -0.00065773      -0.37912304      -0.02802070
Cu       1.28468784       2.22514461       8.00000000        4      -0.10307055       0.05812847      -0.32853037      -0.00858357
Cu       3.85406352       2.22514461       8.00000000        4       0.06274338      -0.03012667      -0.29447504       0.00828211
Cu       6.42343920       2.22514461       8.00000000        4       0.03186752      -0.02588762      -0.31849337      -0.00598959
Cu       2.56937568       4.45028922       8.00000000        4      -0.01177106       0.07150034      -0.30776751       0.00056073
Cu       5.13875136       4.45028922       8.00000000        4      -0.03446386       0.02379460      -0.28878878      -0.03238147
Cu       7.70812704       4.45028922       8.00000000        4       0.03577952      -0.01353391      -0.31366995      -0.00598972
Cu       1.28468784       0.74171487      10.09788646        3       0.01026736       0.05250003      -0.00199654      -0.01692759
Cu       3.85406352       0.74171487      10.09788646        3       0.02428261      -0.00110999       0.00095818      -0.00127156
Cu       6.42343920       0.74171487      10.09788646        3      -0.00849270      -0.00417900      -0.00362670      -0.00615080
Cu       2.56937568       2.96685948      10.09788646        3      -0.03039005      -0.04771845      -0.00832130      -0.01466954
Cu       5.13875136       2.96685948      10.09788646        3      -0.04015735      -0.01541783      -0.09030330       0.02804680
Cu       7.70812704       2.96685948      10.09788646        3       0.09418046      -0.05533902      -0.04535439      -0.00668680
Cu       3.85406352       5.19200409      10.09788646        3       0.04426770      -0.01516634      -0.07415187       0.02479702
Cu       6.42343920       5.19200409      10.09788646        3      -0.00891222       0.03390553      -0.08575911       0.02679669
Cu       8.99281488       5.19200409      10.09788646        3      -0.00413100       0.01675531      -0.00747295      -0.00518800
Cu      -0.00001456       1.48341895      12.22216237        2       0.02336328       0.02221192       0.07372995       0.02911634
Cu       2.56938632       1.48343972      12.22228812        2      -0.02588518       0.01704782       0.09459707       0.03058549
Cu       5.13868200       1.48341490      12.22229490        2      -0.02651641      -0.01550989       0.11925855      -0.00375573
Cu       1.28472730       3.70860469      12.22229670        2      -0.02108920      -0.02702861       0.07021530       0.02887340
Cu       3.85404919       3.70853617      12.22226661        2       0.01503858       0.06103035       0.13502508      -0.03420045
Cu       6.42343137       3.70855859      12.22219237        2      -0.04649217       0.03963800       0.07013021      -0.02708103
Cu       2.56933175       5.93372331      12.22226822        2       0.00834026      -0.00701111       0.06792120      -0.00769656
Cu       5.13873976       5.93371007      12.22221793        2      -0.04885519      -0.04801027       0.13848896      -0.03552515
Cu       7.70811165       5.93376676      12.22227910        2       0.00100711       0.01337831       0.11068327      -0.00417680
Cu       0.00003176       0.00005032      14.34901118        1      -0.06965170       0.10757769       0.26541931      -0.02622511
Cu       2.56930125       0.00001804      14.34916312        1       0.07090438       0.18093465       0.21407490      -0.02594350
Cu       5.13864853       0.00002580      14.34922433        1       0.01004583      -0.02951326       0.39242796      -0.08958055
Cu       1.28470809       2.22517124      14.34907163        1       0.06952596      -0.04895682       0.33436566      -0.08950964
Cu       3.85409307       2.22518508      14.34928516        1      -0.15459245      -0.17644860       0.17566255      -0.02661284
Cu       6.42349021       2.22507450      14.34904494        1       0.15391649      -0.28425295       0.18842204      -0.03490842
Cu       2.56959011       4.45037276      14.34913478        1      -0.12696053       0.01731281       0.25314523      -0.02585218
Cu       5.13896751       4.45026038      14.34907842        1      -0.21812784       0.16324904       0.29158221       0.27173976
Cu       7.70816084       4.45028686      14.34912297        1       0.32968726       0.03083909       0.17614413      -0.03427372
O        5.20789826       4.39376415      16.27601390        0      -0.00171720      -0.00226102      -0.01427235      -0.48254660
C        6.28398860       3.64567953      16.83630845        0      -0.01018561      -0.00432307      -0.00049607       0.10126536
H        6.21317893       2.55985740      16.72569470        0       0.00990439       0.00702921       0.00017673       0.07558470
H        7.27173030       4.10625888      16.75620081        0      -0.00588812       0.00508687       0.00171428       0.07464638
H        5.38343025       4.23740371      17.40709079        0       0.01349650       0.00018741       0.00826627       0.37183744
