41
Lattice="7.708127040155146 0.0 0.0 3.854063520077573 6.675433832372109 0.0 0.0 0.0 22.29365937364323" Properties=species:S:1:pos:R:3:tags:I:1:forces:R:3:charge:R:1 energy=-4362.7462438826615 free_energy=-4362.7462438826615 stress="-0.013819646187306047 0.0014305963209186414 3.825312378225927e-05 0.0014305963209186414 -0.01667931873632291 -0.002328067181702138 3.825312378225927e-05 -0.002328067181702138 -0.016305309559856897" dipole="0.7515084236731452 0.4119560903795242 2.179344116461443" pbc="T T F"
Cu       0.00000000      -0.00000000       8.00000000        4      -0.04086031       0.02042394      -0.32287848      -0.00980061
Cu       2.56937568      -0.00000000       8.00000000        4      -0.02900496      -0.00516219      -0.31545844      -0.01989975
Cu       5.13875136       0.00000000       8.00000000        4       0.06165403       0.00957388      -0.31524901      -0.00876388
Cu       1.28468784       2.22514461       8.00000000        4      -0.03373120      -0.01231294      -0.31750344       0.01422855
Cu       3.85406352       2.22514461       8.00000000        4       0.06371310      -0.03410389      -0.28050523       0.01007403
Cu       6.42343920       2.22514461       8.00000000        4      -0.03786455      -0.01270415      -0.35837134      -0.03015891
Cu       2.56937568       4.45028922       8.00000000        4      -0.06136831       0.05442540      -0.27594103       0.00137034
Cu       5.13875136       4.45028922       8.00000000        4       0.05506457      -0.02655545      -0.28216485      -0.01818513
Cu       7.70812704       4.45028922       8.00000000        4      -0.00166753      -0.02531199      -0.30184808      -0.00454033
Cu       1.28468784       0.74171487      10.09788646        3       0.01927209      -0.04598428      -0.01339198      -0.01079915
Cu       3.85406352       0.74171487      10.09788646        3      -0.00923408       0.01091008      -0.01475432       0.00017620
Cu       6.42343920       0.74171487      10.09788646        3       0.01144875       0.01103615      -0.00738274      -0.00625113
Cu       2.56937568       2.96685948      10.09788646        3      -0.00570034      -0.01274996      -0.01546306      -0.01267566
Cu       5.13875136       2.96685948      10.09788646        3       0.06255515      -0.03570357      -0.09810208       0.01989585
Cu       7.70812704       2.96685948      10.09788646        3      -0.03543597       0.00367952      -0.03019253      -0.01198844
Cu       3.85406352       5.19200409      10.09788646        3       0.00962380       0.08648441      -0.06222726       0.02233083
Cu       6.42343920       5.19200409      10.09788646        3      -0.01469435       0.03999165      -0.09796678       0.03403605
Cu       8.99281488       5.19200409      10.09788646        3       0.02651531       0.02600093      -0.03618070      -0.00227425
Cu      -0.00001456       1.48341895      12.22216237        2      -0.04395613      -0.03833311       0.00548083       0.01223280
Cu       2.56938632       1.48343972      12.22228812        2      -0.01097287      -0.02343321       0.07856446       0.01168958
Cu       5.13868200       1.48341490      12.22229490        2       0.02076378      -0.04337468      -0.02595386       0.00710404
Cu       1.28472730       3.70860469      12.22229670        2       0.02660556       0.01094157       0.03266019       0.03638300
Cu       3.85404919       3.70853617      12.22226661        2      -0.03678853      -0.04141329       0.07587441      -0.02113179
Cu       6.42343137       3.70855859      12.22219237        2       0.00550114      -0.08386491      -0.02234021      -0.03069166
Cu       2.56933175       5.93372331      12.22226822        2      -0.02798687       0.01866146       0.01798408      -0.01269392
Cu       5.13873976       5.93371007      12.22221793        2      -0.02961841       0.05891053       0.07030478      -0.03289552
Cu       7.70811165       5.93376676      12.22227910        2       0.04858829       0.01859214       0.05483852      -0.02068934
Cu       0.00003176       0.00005032      14.34901118        1      -0.19819387       0.14200785       0.24749735      -0.02197360
Cu       2.56930125       0.00001804      14.34916312        1       0.13227126       0.24516566       0.30282518       0.02649871
Cu       5.13864853       0.00002580      14.34922433        1       0.10945665      -0.05953143       0.34980857      -0.04775169
Cu       1.28470809       2.22517124      14.34907163        1       0.14213960      -0.01464697       0.31218684      -0.06262680
Cu       3.85409307       2.22518508      14.34928516        1      -0.25564420      -0.21150928       0.24380754      -0.09380004
Cu       6.42349021       2.22507450      14.34904494        1       0.08021593      -0.08118992       0.39188446      -0.09220750
Cu       2.56959011       4.45037276      14.34913478        1      -0.26950759       0.00945462       0.32386037      -0.09196440
Cu       5.13896751       4.45026038      14.34907842        1      -0.47963714      -0.12084082      -0.78683155       0.29192744
Cu       7.70816084       4.45028686      14.34912297        1       0.49440843      -0.01810753       0.02536295      -0.01173541
O        5.60275009       5.07189017      16.04489185        0     -72.06874891     249.84520257     -36.12923711      -0.46899331
C        5.99206157       3.72244975      16.24005656        0      72.08876346    -249.75415539      36.02811773       0.10339642
H        5.24096160       3.13359367      16.77064661        0      -0.10097104      -0.07946915       0.07607853       0.05780908
H        6.97818539       3.64462340      16.70075177        0       0.07910107      -0.00794036       0.03918834       0.06949277
H        5.61366648       4.64123409      17.09727555        0      -0.00233636      -0.00385545      -0.01350462       0.42584652
