29
Lattice="8.493 0.0 0.0 4.2465 6.005457892617349 0.0 0.0 0.0 20.003638595078232" Properties=species:S:1:pos:R:3:initial_charges:R:1:tags:I:1:forces:R:3 charge=0 spin=0 energy=-191.74337704145228 free_energy=-191.74337704145228 stress="0.04555898532271385 0.0020300268661230803 -0.00011466249998193234 0.0020300268661230803 0.03109484724700451 1.940623224072624e-05 -0.00011466249998193234 1.940623224072624e-05 0.008603767491877079" dipole="0.5290851687822186 -0.13294553736321296 0.48327657529334395" pbc="T T T"
Fe       0.00000000       0.00000000       8.00000000      -0.00348270        3       0.00861933       0.00172601       0.55399382
Fe       2.83100000       0.00000000       8.00000000      -0.00357477        3      -0.03542900       0.08981632       0.40963921
Fe       5.66200000       0.00000000       8.00000000      -0.00430387        3       0.04526245      -0.06882342       0.38225517
Fe       1.41550000       2.00181930       8.00000000      -0.00372332        3      -0.03175776       0.04588048       0.40450564
Fe       4.24650000       2.00181930       8.00000000      -0.00431906        3       0.12059218      -0.05164432       0.48934543
Fe       7.07750000       2.00181930       8.00000000      -0.00465426        3       0.01775468       0.00091899       0.62268376
Fe       2.83100000       4.00363860       8.00000000      -0.00333565        3       0.00108448      -0.04334496       0.42521048
Fe       5.66200000       4.00363860       8.00000000      -0.00396362        3      -0.02408433      -0.00796364       0.55455798
Fe       8.49300000       4.00363860       8.00000000      -0.00403905        3      -0.14736982       0.05091846       0.51796275
Fe       0.00000000       2.00181930      10.00181930      -0.00021630        2       0.03473004      -0.20875002      -0.28377748
Fe       2.83100000       2.00181930      10.00181930       0.00428078        2       0.21536946      -0.01263219      -0.86801040
Fe       5.66200000       2.00181930      10.00181930       0.00181293        2      -0.08201809       0.34501541      -0.26218414
Fe       1.41550000       4.00363860      10.00181930       0.00239685        2      -0.22809343       0.01776237      -0.70919561
Fe       4.24650000       4.00363860      10.00181930       0.00397401        2       0.00080718       0.20061289      -0.39220938
Fe       7.07750000       4.00363860      10.00181930       0.00169502        2       0.09096023      -0.33636659      -0.28788781
Fe       2.83100000       6.00545789      10.00181930       0.00084268        2      -0.20234573       0.15557884      -0.43744221
Fe       5.66200000       6.00545789      10.00181930       0.00282419        2       0.16528749      -0.15299617      -0.45469433
Fe       8.49300000       6.00545789      10.00181930       0.00421024        2       0.02820783      -0.00671949      -0.65865093
Fe      -0.69032145       1.02328447      11.95879556      -0.02661788        1       0.01152393      -0.00983922      -0.01624690
Fe       3.12168430      -0.60541081      11.81810528      -0.00641519        1      -0.00964909      -0.01362196       0.03158438
Fe       5.44282720       0.59782334      11.82930013       0.00343482        1      -0.01564100      -0.01193614       0.00817914
Fe       1.72492262       1.40359493      11.84030362      -0.01286244        1       0.01953856      -0.03156966       0.01354993
Fe       3.98814934       2.67700816      11.86532742      -0.00152790        1      -0.00239965      -0.03539890      -0.00326437
Fe       6.33334907       2.95777778      12.43315335      -0.01161461        1      -0.00331471       0.01722232      -0.01303771
Fe       2.55983553       4.58464516      11.81558844      -0.00793131        1       0.00009602       0.00661977       0.00781917
Fe       4.97575523       4.95593648      11.92387930       0.00410004        1       0.00435387       0.04261253      -0.01412778
Fe       8.69064563       3.33945707      11.88899797       0.00229911        1       0.01875101       0.00460806      -0.01293132
N        6.06951312       2.98865458      13.97118578      -0.11665892        0      -0.01459498       0.02517258      -0.01725737
H        8.97141960       2.00746654      12.93943882       0.18737018        0       0.01375905      -0.01285834       0.00963051
