29
Lattice="8.493 0.0 0.0 4.2465 6.005457892617349 0.0 0.0 0.0 20.003638595078232" Properties=species:S:1:pos:R:3:tags:I:1:forces:R:3 charge=0 spin=0 energy=-192.53566173716501 free_energy=-192.53566173716501 stress="0.0541263073682785 0.0001064893658622168 -0.00019852162222377956 0.0001064893658622168 0.0178544744849205 0.001979897730052471 -0.00019852162222377956 0.001979897730052471 0.008936953730881214" pbc="T T T"
Fe       0.00000000       0.00000000       8.00000000        3      -0.02597638       0.09160621       0.56848919
Fe       2.83100000       0.00000000       8.00000000        3       0.00080189       0.13086165       0.43413529
Fe       5.66200000       0.00000000       8.00000000        3       0.01136244       0.11925828       0.50803369
Fe       1.41550000       2.00181930       8.00000000        3      -0.01465518       0.13461471       0.39120951
Fe       4.24650000       2.00181930       8.00000000        3       0.01386833       0.12720452       0.41338745
Fe       7.07750000       2.00181930       8.00000000        3      -0.00004302       0.04945961       0.54973048
Fe       2.83100000       4.00363860       8.00000000        3      -0.00291594       0.14231429       0.43942189
Fe       5.66200000       4.00363860       8.00000000        3      -0.02539974       0.10285430       0.62413448
Fe       8.49300000       4.00363860       8.00000000        3      -0.01834688       0.11562926       0.55356830
Fe       0.00000000       2.00181930      10.00181930        2       0.12488153      -0.03250699      -0.48956600
Fe       2.83100000       2.00181930      10.00181930        2       0.04284063      -0.27014408      -0.70149034
Fe       5.66200000       2.00181930      10.00181930        2      -0.17517693       0.12608512      -0.42625362
Fe       1.41550000       4.00363860      10.00181930        2      -0.01910667      -0.14054397      -0.50596339
Fe       4.24650000       4.00363860      10.00181930        2      -0.02217903       0.03876573      -0.41690087
Fe       7.07750000       4.00363860      10.00181930        2       0.03462735      -0.18717124      -0.46613321
Fe       2.83100000       6.00545789      10.00181930        2      -0.04920164       0.20747513      -0.38346922
Fe       5.66200000       6.00545789      10.00181930        2      -0.02882502      -0.37180215      -0.54574591
Fe       8.49300000       6.00545789      10.00181930        2       0.11041468      -0.39951360      -0.50021070
Fe       0.12726763       0.56517577      11.84049183        1       0.01831826       0.01198757       0.01116842
Fe       2.84603649       0.57870060      11.81307720        1       0.00314560      -0.00522514      -0.00038416
Fe       5.44068274       0.67079957      11.88013672        1      -0.00487537      -0.00518169      -0.00540166
Fe       1.51521491       2.57650792      11.83905801        1       0.01929161      -0.00314677      -0.00116976
Fe       4.05513961       2.63868269      11.86595073        1      -0.00699098      -0.00512687      -0.01077520
Fe       7.08804888       2.40112033      11.85954878        1      -0.00463285       0.00570304       0.00284368
Fe       2.68660770       4.69551046      11.88982110        1       0.01986545       0.00741290      -0.00184145
Fe       5.56870126       4.57582606      11.89265766        1       0.00700134      -0.00730328      -0.00448915
Fe       8.63823459       4.57932554      11.90274250        1      -0.00702875       0.00224044      -0.00711673
O        7.09325603       3.91070387      13.10015111        0      -0.00284501       0.00477189      -0.00586727
H        7.09607635       3.75271843      14.06388339        0       0.00178031       0.00942113      -0.02334351
