4
Lattice="21.58863531489777 0.0 0.0 0.0 21.671900760433942 0.0 0.0 0.0 20.328078220468747" Properties=species:S:1:pos:R:3:forces:R:3 charge=0 spin=1 energy=-1538.8109820473326 stress="-1.054431280067547e-07 -6.604383884223353e-08 1.333319517016207e-07 -6.604383884223353e-08 3.6967978189750283e-07 -1.0287753582360892e-07 1.333319517016207e-07 -1.0287753582360892e-07 7.642039889788066e-08" free_energy=-1538.8109820473326 pbc="T T T"
N       10.59664039      10.77282591      10.36683845      -0.00335590       0.00262287      -0.00196301
H       11.52795165      10.66565161       9.98384507       0.00178125      -0.00015308      -0.00031364
H       10.03350828      10.01748155       9.99538885       0.00033370       0.00086548       0.00063032
H       10.21945027      11.63595359       9.99467483       0.00124094      -0.00333525       0.00164633
