29
Lattice="8.493 0.0 0.0 4.2465 6.005457892617349 0.0 0.0 0.0 20.003638595078232" Properties=species:S:1:pos:R:3:tags:I:1:forces:R:3 charge=0 spin=0 energy=-190.51499493085657 free_energy=-190.51499493085657 stress="0.04579264670610428 -6.902933091623709e-05 1.552398458670723e-07 -6.902933091623709e-05 0.03124181181192398 1.9998715572455694e-08 1.552398458670723e-07 1.9998715572455694e-08 0.009043170139193535" pbc="T T T"
Fe       0.00000000       0.00000000       8.00000000        3       0.03133394      -0.01724813       0.50969613
Fe       2.83100000       0.00000000       8.00000000        3       0.00086294       0.01707551       0.50808996
Fe       5.66200000       0.00000000       8.00000000        3      -0.03572937      -0.03993505       0.49321339
Fe       1.41550000       2.00181930       8.00000000        3      -0.10845850       0.00645564       0.66537416
Fe       4.24650000       2.00181930       8.00000000        3       0.10845245      -0.00645187       0.66535997
Fe       7.07750000       2.00181930       8.00000000        3      -0.00000252       0.00000203       0.65409571
Fe       2.83100000       4.00363860       8.00000000        3      -0.00085410      -0.01707311       0.50808579
Fe       5.66200000       4.00363860       8.00000000        3      -0.03132631       0.01725580       0.50970995
Fe       8.49300000       4.00363860       8.00000000        3       0.03573815       0.03993350       0.49320143
Fe       0.00000000       2.00181930      10.00181930        2      -0.49467027       0.01844424      -0.03706979
Fe       2.83100000       2.00181930      10.00181930        2       0.00001567       0.00000124      -0.62991399
Fe       5.66200000       2.00181930      10.00181930        2       0.49469084      -0.01847982      -0.03703438
Fe       1.41550000       4.00363860      10.00181930        2       0.01733897      -0.05861755      -0.60139173
Fe       4.24650000       4.00363860      10.00181930        2      -0.03957130      -0.03342082      -0.58526385
Fe       7.07750000       4.00363860      10.00181930        2      -0.01470826       0.07824849      -0.74614859
Fe       2.83100000       6.00545789      10.00181930        2       0.01474877      -0.07827382      -0.74615562
Fe       5.66200000       6.00545789      10.00181930        2       0.03955025       0.03343097      -0.58524680
Fe       8.49300000       6.00545789      10.00181930        2      -0.01734686       0.05857774      -0.60137504
Fe       0.01267940      -0.00655338      11.83616677        1      -0.01281383       0.08278192      -0.19218342
Fe       2.83088732       0.00101819      11.86357572        1       0.00113786      -0.05499065      -0.01824906
Fe       5.64696887      -0.00996765      11.83970772        1      -0.00892367       0.06840422      -0.16974786
Fe       1.44252039       2.00212279      11.86325753        1       0.19412917      -0.00189265      -0.03505440
Fe       4.21948563       2.00151574      11.86326174        1      -0.19408125       0.00188864      -0.03501521
Fe       7.07749026       2.00182945      12.19184837        1      -0.00017648       0.00007513      -0.28189465
Fe       2.83111367       4.00262055      11.86357593        1      -0.00115942       0.05499772      -0.01824685
Fe       5.64931989       4.01018694      11.83616206        1       0.01281768      -0.08278742      -0.19219369
Fe       8.50803936       4.01361920      11.83971179        1       0.00900163      -0.06832069      -0.16976698
N        7.07765073       2.00182021      13.79042811        0      -0.00004055      -0.00008647       0.29945862
H        7.07757890       2.00172359      14.81073709        0       0.00004490       0.00000541       0.37566602
