42
Lattice="7.708127040155146 0.0 0.0 3.854063520077573 6.675433832372109 0.0 0.0 0.0 22.29365937364323" Properties=species:S:1:pos:R:3:tags:I:1:forces:R:3:charge:R:1 energy=-4831.687140459922 free_energy=-4831.687140459922 stress="-0.014440276367140929 0.0005773800257714472 7.872217258064855e-05 0.0005773800257714472 -0.013415158178075098 -0.0001272135949597506 7.872217258064855e-05 -0.0001272135949597506 -0.015202337237343405" dipole="0.8740101814254252 0.3921313305030045 1.2951379517482347" pbc="T T F"
Cu      -0.00000000       0.00000000       8.00000000        4       0.00091977       0.00518103      -0.28722441       0.00725574
Cu       2.56937568      -0.00000000       8.00000000        4       0.00043217      -0.00564335      -0.27295462       0.01690159
Cu       5.13875136      -0.00000000       8.00000000        4      -0.00328724      -0.07155169      -0.33292963      -0.00655513
Cu       1.28468784       2.22514461       8.00000000        4      -0.01510159      -0.00631279      -0.27884008       0.01028886
Cu       3.85406352       2.22514461       8.00000000        4       0.07648681       0.04319527      -0.28867573      -0.01298938
Cu       6.42343920       2.22514461       8.00000000        4      -0.06414052       0.03904384      -0.28532865      -0.00356783
Cu       2.56937568       4.45028922       8.00000000        4      -0.05619681       0.04297150      -0.32763285      -0.01096969
Cu       5.13875136       4.45028922       8.00000000        4      -0.00376783      -0.07865071      -0.28827942      -0.01064015
Cu       7.70812704       4.45028922       8.00000000        4       0.05653022       0.03980553      -0.33053092      -0.01045275
Cu       1.28468784       0.74171487      10.09788646        3      -0.00951316       0.00388505      -0.06656008      -0.02844006
Cu       3.85406352       0.74171487      10.09788646        3       0.01693878      -0.05149103      -0.06507915      -0.00161488
Cu       6.42343920       0.74171487      10.09788646        3       0.00179519      -0.09486801      -0.06559277      -0.00556239
Cu       2.56937568       2.96685948      10.09788646        3      -0.03840371       0.06560079      -0.04690014      -0.00259656
Cu       5.13875136       2.96685948      10.09788646        3      -0.03709898       0.01148080      -0.16487071       0.05068756
Cu       7.70812704       2.96685948      10.09788646        3       0.08222371       0.05526835      -0.06139935      -0.00605414
Cu       3.85406352       5.19200409      10.09788646        3      -0.08365332       0.00352075      -0.04748079      -0.00543833
Cu       6.42343920       5.19200409      10.09788646        3       0.06820183       0.00841921      -0.05448405      -0.00308902
Cu       8.99281488       5.19200409      10.09788646        3       0.02121274      -0.02401572       0.03257674      -0.01531273
Cu      -0.00001456       1.48341895      12.22216237        2       0.05950701      -0.05069741       0.12017680       0.01264777
Cu       2.56938632       1.48343972      12.22228812        2      -0.02548727      -0.06130198       0.12357747       0.00222678
Cu       5.13868200       1.48341490      12.22229490        2      -0.03397091      -0.03207876       0.10032666      -0.05203862
Cu       1.28472730       3.70860469      12.22229670        2       0.00267883       0.02442282       0.09238471      -0.00020367
Cu       3.85404919       3.70853617      12.22226661        2      -0.00734074       0.01713273       0.05530693      -0.05428368
Cu       6.42343137       3.70855859      12.22219237        2       0.01500798       0.05392813       0.08762935      -0.05052918
Cu       2.56933175       5.93372331      12.22226822        2       0.00566795      -0.01464349       0.08706599      -0.00162604
Cu       5.13873976       5.93371007      12.22221793        2       0.02168681       0.05509388       0.10694025       0.00197562
Cu       7.70811165       5.93376676      12.22227910        2      -0.01806270      -0.00027215       0.02912772       0.00037948
Cu       0.00003176       0.00005032      14.34901118        1      -0.00081853      -0.08225608       0.29526645      -0.04975171
Cu       2.56930125       0.00001804      14.34916312        1       0.03560356      -0.02136706       0.40011541      -0.08629986
Cu       5.13864853       0.00002580      14.34922433        1       0.00227302      -0.31939287       0.27500612      -0.02225699
Cu       1.28470809       2.22517124      14.34907163        1       0.04630627       0.03545146       0.28344296      -0.05240766
Cu       3.85409307       2.22518508      14.34928516        1      -0.40299995      -0.11684244       0.18158779       0.23477040
Cu       6.42349021       2.22507450      14.34904494        1       0.40397200      -0.19804506       0.25501717       0.15881131
Cu       2.56959011       4.45037276      14.34913478        1      -0.33489998       0.21562780       0.21016762      -0.02192155
Cu       5.13896751       4.45026038      14.34907842        1      -0.04771218       0.32366629       0.28886750       0.21730889
Cu       7.70816084       4.45028686      14.34912297        1       0.27187148       0.16343870       0.26807167      -0.03877792
O        5.81304315       2.44652978      16.38471563        0      -0.02204076       0.02499929      -0.00150544      -0.19160369
C        6.14027981       2.92739585      17.67306909        0       0.00095986       0.03449180       0.00243821       0.17595265
H        6.98264686       2.32146446      18.00915313        0      -0.01351729       0.00253422      -0.01446400       0.05817279
H        6.42529840       3.98505826      17.63037019        0      -0.00935787      -0.04346921      -0.01184056       0.05003939
H        5.28066989       2.79515929      18.33597748        0       0.02327126       0.01908434       0.00133329       0.05472868
O        4.70292726       3.20617190      15.87937400        0       0.01382410      -0.01534376      -0.00385347      -0.30716389
