42
Lattice="7.708127040155146 0.0 0.0 3.854063520077573 6.675433832372109 0.0 0.0 0.0 22.29365937364323" Properties=species:S:1:pos:R:3:tags:I:1:forces:R:3:charge:R:1 energy=-4831.286583169895 free_energy=-4831.286583169895 stress="-0.014362581243296889 0.00039529532183124464 -0.0005716263907476819 0.00039529532183124464 -0.015609420808731927 0.00018468490424094656 -0.0005716263907476819 0.00018468490424094656 -0.019707193192090532" dipole="1.0910721963641028 0.7408115245220623 1.685197734812338" pbc="T T F"
Cu      -0.00000000       0.00000000       8.00000000        4       0.00870126       0.05567496      -0.28999482       0.00782860
Cu       2.56937568      -0.00000000       8.00000000        4      -0.05813747       0.00781254      -0.26673398       0.01762757
Cu       5.13875136      -0.00000000       8.00000000        4       0.05036011      -0.08217886      -0.32349826      -0.01189557
Cu       1.28468784       2.22514461       8.00000000        4      -0.00428570      -0.01848546      -0.32332991      -0.00021693
Cu       3.85406352       2.22514461       8.00000000        4       0.07587565       0.06791201      -0.28107846      -0.00592380
Cu       6.42343920       2.22514461       8.00000000        4      -0.07175819      -0.00086842      -0.27522224      -0.00730283
Cu       2.56937568       4.45028922       8.00000000        4      -0.11062492       0.02164552      -0.34164313      -0.00857389
Cu       5.13875136       4.45028922       8.00000000        4       0.00387674      -0.09137094      -0.26682537      -0.01810336
Cu       7.70812704       4.45028922       8.00000000        4       0.10656444       0.03054642      -0.31883228      -0.00494708
Cu       1.28468784       0.74171487      10.09788646        3       0.01984344       0.00469439      -0.02747139      -0.03073438
Cu       3.85406352       0.74171487      10.09788646        3      -0.00241609      -0.05794999      -0.02759050       0.00269724
Cu       6.42343920       0.74171487      10.09788646        3      -0.01427900      -0.07938334      -0.08392356      -0.01276775
Cu       2.56937568       2.96685948      10.09788646        3      -0.07575325       0.03748104      -0.04565115      -0.01481879
Cu       5.13875136       2.96685948      10.09788646        3      -0.03334957       0.03497667      -0.18464793       0.05316546
Cu       7.70812704       2.96685948      10.09788646        3       0.10993603       0.03127701      -0.05789455       0.00283918
Cu       3.85406352       5.19200409      10.09788646        3      -0.02239449       0.01051772      -0.02852242       0.00462934
Cu       6.42343920       5.19200409      10.09788646        3       0.00937245       0.04982597      -0.09301136       0.00362889
Cu       8.99281488       5.19200409      10.09788646        3       0.00995628      -0.00464840      -0.01420747      -0.01467197
Cu      -0.00001456       1.48341895      12.22216237        2       0.02988108      -0.04001702       0.05771985       0.01188663
Cu       2.56938632       1.48343972      12.22228812        2      -0.03795195      -0.01120798       0.09110759       0.00468216
Cu       5.13868200       1.48341490      12.22229490        2       0.02817582      -0.02812929       0.02050906      -0.05332168
Cu       1.28472730       3.70860469      12.22229670        2       0.02793482       0.00599574       0.09613962      -0.00900564
Cu       3.85404919       3.70853617      12.22226661        2       0.01378525      -0.04128857      -0.00811989      -0.05919328
Cu       6.42343137       3.70855859      12.22219237        2      -0.03990007       0.01608591       0.02266675      -0.06136739
Cu       2.56933175       5.93372331      12.22226822        2      -0.05552784       0.01269264       0.04475829       0.00375801
Cu       5.13873976       5.93371007      12.22221793        2       0.04667499       0.03056313       0.11131440      -0.00863359
Cu       7.70811165       5.93376676      12.22227910        2       0.03344146      -0.00626605       0.03655468       0.00241015
Cu       0.00003176       0.00005032      14.34901118        1       0.01269390       0.01558348       0.31673118      -0.07357298
Cu       2.56930125       0.00001804      14.34916312        1      -0.05940316       0.10761743       0.31302535      -0.08728956
Cu       5.13864853       0.00002580      14.34922433        1       0.06151530      -0.25065167       0.31703479      -0.05654466
Cu       1.28470809       2.22517124      14.34907163        1       0.12058867      -0.02181107       0.30519917      -0.06377941
Cu       3.85409307       2.22518508      14.34928516        1      -0.41943035      -0.55402096      -0.01981061       0.24147181
Cu       6.42349021       2.22507450      14.34904494        1       0.43492599      -0.49039612      -0.04334490       0.14647946
Cu       2.56959011       4.45037276      14.34913478        1      -0.31363993       0.12428111       0.29011289      -0.04203683
Cu       5.13896751       4.45026038      14.34907842        1      -0.26004875       1.00313836      -0.46691045       0.28565822
Cu       7.70816084       4.45028686      14.34912297        1       0.31299770       0.15620599       0.26757149       0.00268504
O        6.11030575       3.30787966      16.16853479        0      -0.11460647      -0.25233946       0.20381404      -0.18649950
C        5.93218573       3.36763514      17.56290762        0       0.06493200      -0.06725734       0.23203341       0.17423122
H        6.91779591       3.27802233      18.00897929        0       0.08359956       0.04505047       0.17491162       0.05953056
H        5.43320768       4.30867372      17.80958611        0       0.11086009      -0.01558324       0.17911291       0.05256493
H        5.28602270       2.52226664      17.80532461        0       0.08837471      -0.02632829       0.47633284       0.06126991
O        4.74755963       3.16821910      15.70781259        0      -0.17136056       0.27060393       0.23161469      -0.30784350
