31
Lattice="8.493 0.0 0.0 4.2465 6.005457892617349 0.0 0.0 0.0 20.003638595078232" Properties=species:S:1:pos:R:3:tags:I:1:forces:R:3:charge:R:1 charge=0 spin=0 energy=-2421.164876222818 free_energy=-2421.164876222818 stress="0.021443589248763814 -0.0016515106639248666 -0.0002924589129222112 -0.0016515106639248666 0.005664301662614771 2.5028785566066144e-05 -0.0002924589129222112 2.5028785566066144e-05 -0.00412457900323706" dipole="0.6917021983387136 -0.4599880447257655 1.7567425348732622" pbc="T T T"
Fe       0.00000000       0.00000000       8.00000000        3       0.08802290      -0.02658074      -0.06792024      -0.00560988
Fe       2.83100000       0.00000000       8.00000000        3      -0.09577297      -0.03452603      -0.03354803      -0.00608195
Fe       5.66200000       0.00000000       8.00000000        3       0.01418781       0.05679241      -0.15826959      -0.00535128
Fe       1.41550000       2.00181930       8.00000000        3       0.01104445       0.01603305      -0.00052948      -0.00638361
Fe       4.24650000       2.00181930       8.00000000        3       0.03409714       0.00816629      -0.03981490      -0.00507206
Fe       7.07750000       2.00181930       8.00000000        3      -0.02106482      -0.00012874      -0.06567366      -0.00527383
Fe       2.83100000       4.00363860       8.00000000        3      -0.10443216       0.03088242      -0.06324437      -0.00563257
Fe       5.66200000       4.00363860       8.00000000        3      -0.02825442      -0.01006961      -0.16580300      -0.00503904
Fe       8.49300000       4.00363860       8.00000000        3       0.11524109       0.01570243       0.00446891      -0.00643400
Fe       0.00000000       2.00181930      10.00181930        2      -0.79715357      -0.08998191       0.00179644      -0.00116647
Fe       2.83100000       2.00181930      10.00181930        2       0.72498373       0.04691623      -0.13199903      -0.00157778
Fe       5.66200000       2.00181930      10.00181930        2      -0.05686892      -0.04506221      -0.52726549       0.00118885
Fe       1.41550000       4.00363860      10.00181930        2       0.09965659      -0.35008255       0.23489280       0.00076651
Fe       4.24650000       4.00363860      10.00181930        2       0.57212324      -0.02816470      -1.63935148       0.00158523
Fe       7.07750000       4.00363860      10.00181930        2      -0.58961956       0.16796063      -0.96297313      -0.00050000
Fe       2.83100000       6.00545789      10.00181930        2      -0.56865408       0.03987977      -1.17997741       0.00321010
Fe       5.66200000       6.00545789      10.00181930        2      -0.00159021       0.25886901       0.16682897       0.00081514
Fe       8.49300000       6.00545789      10.00181930        2       0.57751118      -0.00923865      -0.92251858       0.00191214
Fe      -0.26518266       0.20945978      11.83722203        1       0.27253101      -0.62804911       2.24614740       0.04716787
Fe       3.10512793       0.18549752      11.83541618        1      -0.27737552       0.12846425       0.57771439      -0.00949705
Fe       5.66127124      -0.56860039      11.83522456        1      -0.19757606      -0.00974699       0.08946843       0.03673938
Fe       1.41585411       2.01518229      11.75852330        1      -0.05446725       0.07925751       0.18351692      -0.00488362
Fe       4.47368163       1.98069598      12.10686849        1       0.84722078      -0.35598989       2.04813870       0.00374486
Fe       6.85044192       1.98487394      12.10678346        1      -0.86123018       0.64840932       1.49995048       0.01924181
Fe       3.11615338       3.77708131      11.83899590        1      -0.37657695       0.34737627       2.24641562       0.04436429
Fe       5.66167640       4.54490648      11.82915865        1      -0.13278199       0.13460531       0.56497456       0.02251926
Fe       8.20150754       3.79684420      11.83610770        1       0.41866145      -0.22454323       0.67386774      -0.00758498
N        5.48551731       2.25164392      13.58526463        0       0.05031643      -0.02638599       0.73092700      -0.29804618
H        4.55813498       3.56545541      13.39918906        0       0.00032609      -0.00021877      -0.00005770       0.36654384
H        5.55623439       2.21545816      14.60966555        0      -0.05064554       0.02528844      -0.72989634       0.25940198
O        3.71716869       4.75389601      13.23037437        0       0.00093216      -0.00030693      -0.00032348      -0.43506697
