29
Lattice="8.493 0.0 0.0 4.2465 6.005457892617349 0.0 0.0 0.0 20.003638595078232" Properties=species:S:1:pos:R:3:initial_charges:R:1:tags:I:1:forces:R:3 charge=0 spin=0 energy=-191.8694329659553 free_energy=-191.8694329659553 stress="0.05378224328160286 -0.0005779510829597712 -6.305870920186862e-05 -0.0005779510829597712 0.017420371994376183 -0.0020810896530747414 -6.305870920186862e-05 -0.0020810896530747414 0.00881990510970354" dipole="-0.014597065441502027 -0.42353386641638013 0.7807798814999612" pbc="T T T"
Fe       0.00000000       0.00000000       8.00000000      -0.00312927        3       0.01975633      -0.11398345       0.51747841
Fe       2.83100000       0.00000000       8.00000000      -0.00402486        3      -0.00528395      -0.10110985       0.54121864
Fe       5.66200000       0.00000000       8.00000000      -0.00323563        3      -0.00380501      -0.14802267       0.43614650
Fe       1.41550000       2.00181930       8.00000000      -0.00387144        3       0.00319783      -0.13289846       0.45168760
Fe       4.24650000       2.00181930       8.00000000      -0.00436529        3       0.00239418      -0.09397172       0.66386485
Fe       7.07750000       2.00181930       8.00000000      -0.00366261        3      -0.01706864      -0.13433123       0.55537421
Fe       2.83100000       4.00363860       8.00000000      -0.00323565        3       0.04744860      -0.11765947       0.42886424
Fe       5.66200000       4.00363860       8.00000000      -0.00421240        3      -0.03750115      -0.04438975       0.55290943
Fe       8.49300000       4.00363860       8.00000000      -0.00392581        3      -0.02976108      -0.13130650       0.39844882
Fe       0.00000000       2.00181930      10.00181930       0.00205331        2      -0.04478567       0.16620806      -0.52171576
Fe       2.83100000       2.00181930      10.00181930       0.00034703        2      -0.15002590       0.01568130      -0.49673209
Fe       5.66200000       2.00181930      10.00181930       0.00469480        2       0.08433236       0.17096110      -0.59980744
Fe       1.41550000       4.00363860      10.00181930       0.00386470        2       0.07196961       0.23442507      -0.89138246
Fe       4.24650000       4.00363860      10.00181930       0.00328732        2      -0.20550554      -0.18258232      -0.42181554
Fe       7.07750000       4.00363860      10.00181930       0.00488556        2       0.14101233       0.03849962      -0.41735744
Fe       2.83100000       6.00545789      10.00181930       0.00003484        2       0.15821086       0.38436544      -0.39530236
Fe       5.66200000       6.00545789      10.00181930       0.00105864        2      -0.10101267      -0.21564858      -0.38623065
Fe       8.49300000       6.00545789      10.00181930       0.00197038        2       0.06345758       0.39290145      -0.43987596
Fe      -0.19574447      -0.66653316      11.86246674       0.00811391        1       0.00682914       0.00885290      -0.00569689
Fe       2.97162504      -0.57676582      11.82973529      -0.00233498        1      -0.00013079       0.00174580       0.01615277
Fe       5.69594450      -0.54469543      11.83614354      -0.02542551        1      -0.01864262       0.00428044       0.00492216
Fe       1.28503048       1.32360230      11.86996334      -0.00544590        1       0.01853308      -0.00142672      -0.00232179
Fe       4.16894784       1.45062575      11.87470357       0.04312569        1      -0.02623483      -0.02008950      -0.02399468
Fe       7.25896198       1.40879546      11.93309302      -0.00623339        1      -0.02545117       0.00416721      -0.01142902
Fe       2.63322406       3.37821757      11.85370634       0.00568474        1       0.00613212      -0.00029853      -0.01150644
Fe       5.69011363       3.56502542      11.86287913       0.05045470        1       0.01482996      -0.00207643       0.00616204
Fe       8.62488891       3.44986932      11.83659639       0.00937472        1       0.01237763       0.00425164       0.00175006
O        5.77168781       2.15414805      13.07377134      -0.37892907        0       0.03429765       0.01000328       0.01705135
H        5.52143936       0.97519248      12.99515486       0.31308149        0      -0.01957005       0.00345190       0.03313750
