30
Lattice="8.493 0.0 0.0 4.2465 6.005457892617349 0.0 0.0 0.0 20.003638595078232" Properties=species:S:1:pos:R:3:tags:I:1:forces:R:3 charge=0 spin=0 energy=-197.7998753358604 free_energy=-197.7998753358604 stress="0.05392937734723091 0.0003342039999552071 0.00011310823902022094 0.0003342039999552071 0.01936049573123455 -0.0020295490976423025 0.00011310823902022094 -0.0020295490976423025 0.008593122474849224" pbc="T T T"
Fe       0.00000000       0.00000000       8.00000000        3      -0.01747868      -0.08633517       0.58360487
Fe       2.83100000       0.00000000       8.00000000        3       0.00487868      -0.13060637       0.38433218
Fe       5.66200000       0.00000000       8.00000000        3       0.02686706      -0.13463973       0.42963833
Fe       1.41550000       2.00181930       8.00000000        3      -0.07200962      -0.10268296       0.57043988
Fe       4.24650000       2.00181930       8.00000000        3       0.03253826      -0.14413975       0.40333077
Fe       7.07750000       2.00181930       8.00000000        3       0.03333427      -0.10791903       0.58254647
Fe       2.83100000       4.00363860       8.00000000        3      -0.06152902      -0.12501654       0.45377654
Fe       5.66200000       4.00363860       8.00000000        3       0.01612399      -0.09907982       0.46783862
Fe       8.49300000       4.00363860       8.00000000        3      -0.00451872      -0.10170203       0.50183284
Fe       0.00000000       2.00181930      10.00181930        2      -0.12078035      -0.18049660      -0.18289733
Fe       2.83100000       2.00181930      10.00181930        2       0.06450657       0.34048167      -0.73042023
Fe       5.66200000       2.00181930      10.00181930        2       0.14739737       0.18603049      -0.51495415
Fe       1.41550000       4.00363860      10.00181930        2      -0.16304722       0.00839851      -0.50284493
Fe       4.24650000       4.00363860      10.00181930        2       0.03257338       0.32545084      -0.61724800
Fe       7.07750000       4.00363860      10.00181930        2       0.19397543      -0.07456541      -0.39432529
Fe       2.83100000       6.00545789      10.00181930        2      -0.32111338       0.14757672      -0.29285526
Fe       5.66200000       6.00545789      10.00181930        2       0.25739232       0.09842137      -0.56702715
Fe       8.49300000       6.00545789      10.00181930        2       0.02873633       0.20005275      -0.57884121
Fe       0.03741592      -0.48914617      11.79287658        1      -0.00186117      -0.00452914       0.01135790
Fe       2.92453378      -0.61396560      11.85604292        1      -0.01230034      -0.00278553      -0.00706247
Fe       5.54632602      -0.61842095      11.85327239        1      -0.01870309      -0.01167395      -0.00054145
Fe       1.66696818       1.38343146      11.84399285        1      -0.01686670       0.00066916       0.00291908
Fe       4.21157470       1.43718857      11.85463923        1       0.01136060       0.01459989      -0.00967671
Fe       6.79451448       1.34196791      11.96079996        1       0.00104160      -0.01347283       0.02141619
Fe       2.82388211       3.48373599      11.82196881        1      -0.00153032      -0.00004204      -0.00035343
Fe       5.58356007       3.48685678      11.80524310        1      -0.00103353      -0.00262417       0.00552071
Fe       8.44862271       3.30647500      11.95141457        1      -0.01984346      -0.00196855      -0.00876758
N        7.70412647       2.28109225      13.45161017        0       0.01989141       0.02645347      -0.01868990
H        7.14790741       2.83816613      14.11337081        0      -0.03235651      -0.01735925       0.00129892
H        8.35895494       1.70601120      13.99870612        0      -0.00564522      -0.00649609       0.00665197
