31
Lattice="8.493 0.0 0.0 4.2465 6.005457892617349 0.0 0.0 0.0 20.003638595078232" Properties=species:S:1:pos:R:3:tags:I:1:forces:R:3:charge:R:1 charge=0 spin=0 energy=-2457.7891100377337 free_energy=-2457.7891100377337 stress="0.022788288700287224 0.0003011362615982142 0.0029619803123759436 0.0003011362615982142 -0.0008287249175194156 0.002099096958727522 0.0029619803123759436 0.002099096958727522 -0.008020199845928435" dipole="-0.05956168396433787 -0.08482257458035958 3.035241786913295" pbc="T T T"
Fe       0.00000000       0.00000000       8.00000000        3       0.00294662      -0.02065849      -0.01927938      -0.01021435
Fe       2.83100000       0.00000000       8.00000000        3       0.01976843      -0.09360530      -0.12036091      -0.00978508
Fe       5.66200000       0.00000000       8.00000000        3       0.00116405      -0.06306455      -0.08550710      -0.00999441
Fe       1.41550000       2.00181930       8.00000000        3      -0.05658617      -0.11445111      -0.09240775      -0.01038801
Fe       4.24650000       2.00181930       8.00000000        3      -0.01059630      -0.05912834      -0.08011275      -0.00965207
Fe       7.07750000       2.00181930       8.00000000        3      -0.00930640      -0.06272633      -0.07668001      -0.00916439
Fe       2.83100000       4.00363860       8.00000000        3       0.02812511      -0.01379298      -0.11004754      -0.01041177
Fe       5.66200000       4.00363860       8.00000000        3       0.04176159      -0.01442617      -0.06564005      -0.00941066
Fe       8.49300000       4.00363860       8.00000000        3       0.03532743      -0.08835175      -0.05644179      -0.00965859
Fe       0.00000000       2.00181930      10.00181930        2      -0.06764275      -0.14303594      -0.05427617      -0.00144979
Fe       2.83100000       2.00181930      10.00181930        2      -0.31021700       0.28337835      -0.36049301       0.00196461
Fe       5.66200000       2.00181930      10.00181930        2       0.11697761       0.31302237      -0.06800111      -0.00160205
Fe       1.41550000       4.00363860      10.00181930        2       0.05841716       0.03651702      -0.10565985       0.00149819
Fe       4.24650000       4.00363860      10.00181930        2       0.08866736       0.10471063      -0.13723314      -0.00040549
Fe       7.07750000       4.00363860      10.00181930        2       0.23391679      -0.25021756      -0.29571077      -0.00353510
Fe       2.83100000       6.00545789      10.00181930        2       0.09427211       0.41136598       0.40971448      -0.00124119
Fe       5.66200000       6.00545789      10.00181930        2       0.13712756      -0.33469002       0.15513025       0.00086430
Fe       8.49300000       6.00545789      10.00181930        2      -0.11223864       0.09109647      -0.13056110       0.00131700
Fe       0.01583942      -0.52786720      11.82091579        1      -0.13751513       0.68522689      -0.51892934      -0.00899268
Fe       3.03299751      -0.65326763      11.87505361        1       0.27633435       0.18477920      -0.36865851      -0.02383925
Fe       5.61331729      -0.55808429      11.83280806        1      -0.16038341      -0.09699771       0.09370501      -0.03567797
Fe       1.56814803       1.33770393      11.87761298        1      -0.21906555      -0.00094693      -0.05370387      -0.03131035
Fe       4.10870195       1.42616631      11.81132008        1      -0.04774501      -0.07715513       0.83551850      -0.00536067
Fe       7.03048324       1.50753747      11.88862050        1       0.21044688      -0.09252474       0.25211030      -0.01177364
Fe       2.81956076       3.46059003      11.83442852        1      -0.43490502       0.06992726      -0.00599219       0.00289875
Fe       5.62724927       3.43485220      11.91727878        1       1.93179845       1.90437759      -3.11626886       0.04494092
Fe       8.74910444       3.35874663      11.84773091        1       0.47227798       0.03639354       0.16897126      -0.01589238
N        6.37447533       2.99804499      13.55859531        0       0.03138570       0.35468557       0.30396933      -0.17704955
H        5.41063551       2.18809673      13.91310307        0      -0.00015130      -0.00612972       0.00548219       0.42918785
H        6.44421894       3.77251374      14.23226854        0      -0.03282708      -0.35045301      -0.30513528       0.24289540
O        4.93863259       2.99442116      13.22632454        0      -0.00313097       0.00525774      -0.00411104      -0.31875757
