29
Lattice="8.493 0.0 0.0 4.2465 6.005457892617349 0.0 0.0 0.0 20.003638595078232" Properties=species:S:1:pos:R:3:tags:I:1:forces:R:3:charge:R:1 charge=0 spin=0 energy=-2082.4291632045033 free_energy=-2082.4291632045033 stress="0.013314574848600146 0.0025470134665935107 0.014775027400849737 0.0025470134665935107 0.0001457794760105506 -0.0014487665494949964 0.014775027400849737 -0.0014487665494949964 -0.01660912274748533" dipole="0.1914270058062499 0.08644388849371064 1.23051685929906" pbc="T T T"
Fe       0.00000000       0.00000000       8.00000000        3      -0.01686540       0.01374595      -0.03153103      -0.00565230
Fe       2.83100000       0.00000000       8.00000000        3       0.03139715       0.05945585      -0.01089552      -0.00525565
Fe       5.66200000       0.00000000       8.00000000        3       0.02769156       0.08989183      -0.05879736      -0.00424184
Fe       1.41550000       2.00181930       8.00000000        3       0.04930833       0.00233447      -0.06506944      -0.00501404
Fe       4.24650000       2.00181930       8.00000000        3       0.04121992       0.04168530       0.00895307      -0.00536596
Fe       7.07750000       2.00181930       8.00000000        3      -0.06962894       0.04152049      -0.00307917      -0.00435641
Fe       2.83100000       4.00363860       8.00000000        3       0.02497969       0.08868231      -0.10339708      -0.00485268
Fe       5.66200000       4.00363860       8.00000000        3       0.02226038       0.05430336       0.02006108      -0.00523518
Fe       8.49300000       4.00363860       8.00000000        3      -0.00354299       0.05381944      -0.06272858      -0.00433043
Fe       0.00000000       2.00181930      10.00181930        2       0.17567164      -0.16059713      -0.65559483       0.00246740
Fe       2.83100000       2.00181930      10.00181930        2       0.06736792      -0.08921036       0.28741836       0.00123545
Fe       5.66200000       2.00181930      10.00181930        2      -0.02842678       0.43754506      -0.29390954       0.00423413
Fe       1.41550000       4.00363860      10.00181930        2       0.13369900      -0.06963476      -0.34197828       0.00472734
Fe       4.24650000       4.00363860      10.00181930        2      -0.31228605      -0.05985670      -0.02206724       0.00071894
Fe       7.07750000       4.00363860      10.00181930        2       0.32232481      -0.03348506      -0.51849506       0.00200657
Fe       2.83100000       6.00545789      10.00181930        2      -0.23742980       0.30721658       0.06772280       0.00189823
Fe       5.66200000       6.00545789      10.00181930        2       0.02676991      -0.54668014       0.15665983       0.00304721
Fe       8.49300000       6.00545789      10.00181930        2       0.25762502       0.34765697       0.06799242       0.00049282
Fe       0.05290690       0.52694155      11.82678456        1       0.17107216      -0.43739926      -0.11025800       0.00328922
Fe       2.79235380       0.51329705      11.82584007        1       0.02252456       0.30755384       0.06679122      -0.00558485
Fe       4.41090264      -1.33100437      11.87130206        1       0.60345435       0.53885365      -0.29873769      -0.02688305
Fe       1.41264464       2.57357503      11.84610593        1      -0.05600260       0.17839443       0.43798807      -0.02036139
Fe       3.93208151       2.68174822      11.94033034        1      -0.11347541      -0.18959282      -0.20389543       0.01459564
Fe       5.65622153       0.74946018      11.92462848        1      -0.27461012      -0.23104204      -0.12535601       0.01737691
Fe       2.67202044       4.67320101      11.87027352        1       0.04830965      -0.03512040      -0.03259240      -0.00535941
Fe       5.65880527       4.38687761      11.83349760        1      -0.05542054      -0.26002207       0.89671767       0.01697615
Fe       7.38372788       2.68139794      11.93281524        1      13.04868405      -4.00461958     -12.58809246       0.00751163
N        6.45217198       2.95091047      12.92901261        0       0.01088473      -0.00358293      -0.00018985      -0.07669969
H        8.79473291       3.66157983      13.00623085        0      -0.01120453       0.00079372      -0.00813419       0.09861524
