37
Lattice="7.708127040155146 0.0 0.0 3.854063520077573 6.675433832372109 0.0 0.0 0.0 22.29365937364323" Properties=species:S:1:pos:R:3:tags:I:1:forces:R:3:charge:R:1 energy=-4491.569808388221 free_energy=-4491.569808388221 stress="-0.013408993770583584 4.2685239827049876e-07 2.8165381878262066e-07 4.2685239827049876e-07 -0.013408754683665893 7.31375420151906e-08 2.8165381878262066e-07 7.31375420151906e-08 -0.015585237331251282" dipole="0.013093950625535075 0.007629657439933574 0.08010793405576912" pbc="T T F"
Cu       0.00000000       0.00000000       8.00000000        4       0.05252533       0.03031969      -0.29531629       0.00582467
Cu       2.56937568       0.00000000       8.00000000        4      -0.05249075       0.03032689      -0.29536896       0.00581147
Cu       5.13875136       0.00000000       8.00000000        4      -0.00003856       0.03293664      -0.28585387       0.01012957
Cu       1.28468784       2.22514461       8.00000000        4       0.00004132      -0.06066328      -0.29532632       0.00582302
Cu       3.85406352       2.22514461       8.00000000        4       0.10798335       0.06233919      -0.34702593      -0.00825543
Cu       6.42343920       2.22514461       8.00000000        4      -0.10802573       0.06234138      -0.34701362      -0.00825252
Cu       2.56937568       4.45028922       8.00000000        4       0.02853076      -0.01647924      -0.28582211       0.01012982
Cu       5.13875136       4.45028922       8.00000000        4      -0.00000117      -0.12470241      -0.34701563      -0.00825490
Cu       7.70812704       4.45028922       8.00000000        4      -0.02853271      -0.01641460      -0.28584721       0.01013469
Cu       1.28468784       0.74171487      10.09788646        3       0.00004317       0.00000691       0.00058619       0.00137197
Cu       3.85406352       0.74171487      10.09788646        3      -0.00914833      -0.04139271      -0.03269675      -0.00504732
Cu       6.42343920       0.74171487      10.09788646        3       0.00906146      -0.04138043      -0.03274036      -0.00503856
Cu       2.56937568       2.96685948      10.09788646        3      -0.04042512       0.01278383      -0.03269231      -0.00504050
Cu       5.13875136       2.96685948      10.09788646        3      -0.00001591      -0.00003452      -0.03435091       0.01267276
Cu       7.70812704       2.96685948      10.09788646        3       0.04045191       0.01282269      -0.03277388      -0.00504075
Cu       3.85406352       5.19200409      10.09788646        3      -0.03130899       0.02856627      -0.03270203      -0.00503486
Cu       6.42343920       5.19200409      10.09788646        3       0.03131162       0.02861687      -0.03275177      -0.00504453
Cu       8.99281488       5.19200409      10.09788646        3      -0.00003503      -0.00000192      -0.02838725       0.00112955
Cu      -0.00001456       1.48341895      12.22216237        2       0.01041379      -0.00587113       0.08405803      -0.00683244
Cu       2.56938632       1.48343972      12.22228812        2      -0.01047470      -0.00599842       0.08380983      -0.00683914
Cu       5.13868200       1.48341490      12.22229490        2       0.00024663       0.01188400      -0.05293362      -0.01728993
Cu       1.28472730       3.70860469      12.22229670        2      -0.00019664       0.00001590       0.10055443       0.00491899
Cu       3.85404919       3.70853617      12.22226661        2       0.01036779      -0.00572164      -0.05279771      -0.01728894
Cu       6.42343137       3.70855859      12.22219237        2      -0.01009970      -0.00586327      -0.05273120      -0.01728935
Cu       2.56933175       5.93372331      12.22226822        2       0.00003021      -0.00000008       0.10064103       0.00491646
Cu       5.13873976       5.93371007      12.22221793        2       0.00002905       0.01192233       0.08390449      -0.00683716
Cu       7.70811165       5.93376676      12.22227910        2       0.00000115      -0.00030741       0.10064826       0.00491758
Cu       0.00003176       0.00005032      14.34901118        1      -0.04024989      -0.02338632       0.25057708      -0.00210556
Cu       2.56930125       0.00001804      14.34916312        1       0.04054695      -0.02311986       0.25037083      -0.00212965
Cu       5.13864853       0.00002580      14.34922433        1       0.00035075      -0.13742217       0.22937256      -0.00422126
Cu       1.28470809       2.22517124      14.34907163        1       0.00016391       0.04655280       0.25048271      -0.00211725
Cu       3.85409307       2.22518508      14.34928516        1      -0.12819198      -0.07405860       0.39076859       0.00816600
Cu       6.42349021       2.22507450      14.34904494        1       0.12798165      -0.07374954       0.39115473       0.00816734
Cu       2.56959011       4.45037276      14.34913478        1      -0.11949837       0.06844998       0.22953505      -0.00420931
Cu       5.13896751       4.45026038      14.34907842        1      -0.00057903       0.14793859       0.39110770       0.00816854
Cu       7.70816084       4.45028686      14.34912297        1       0.11916763       0.06868955       0.22948875      -0.00421057
H        5.13886222       2.96683407      15.12389071        0       0.00006419       0.00005407       0.03508749       0.04409750
