37
Lattice="7.708127040155146 0.0 0.0 3.854063520077573 6.675433832372109 0.0 0.0 0.0 22.29365937364323" Properties=species:S:1:pos:R:3:tags:I:1:forces:R:3:charge:R:1 energy=-4491.543218324625 free_energy=-4491.543218324625 stress="-0.013127385687536797 4.7669471244987207e-07 3.096285065997231e-07 4.7669471244987207e-07 -0.013127215208924934 9.305042718162117e-08 3.096285065997231e-07 9.305042718162117e-08 -0.015029006443976199" dipole="-0.0227206406659246 -0.013046946560481373 0.06154268803440901" pbc="T T F"
Cu       0.00000000       0.00000000       8.00000000        4       0.04418766       0.02550637      -0.29367892       0.00628722
Cu       2.56937568       0.00000000       8.00000000        4      -0.04415297       0.02551244      -0.29373163       0.00627441
Cu       5.13875136       0.00000000       8.00000000        4      -0.00003858       0.03271231      -0.28576106       0.00919887
Cu       1.28468784       2.22514461       8.00000000        4       0.00003986      -0.05103516      -0.29368886       0.00628603
Cu       3.85406352       2.22514461       8.00000000        4       0.10644895       0.06145287      -0.34619930      -0.00819401
Cu       6.42343920       2.22514461       8.00000000        4      -0.10648993       0.06145493      -0.34618774      -0.00819110
Cu       2.56937568       4.45028922       8.00000000        4       0.02833603      -0.01636693      -0.28572875       0.00919932
Cu       5.13875136       4.45028922       8.00000000        4      -0.00000116      -0.12292961      -0.34618893      -0.00819321
Cu       7.70812704       4.45028922       8.00000000        4      -0.02833793      -0.01630285      -0.28575429       0.00920404
Cu       1.28468784       0.74171487      10.09788646        3       0.00004204       0.00000653       0.00359036       0.00178880
Cu       3.85406352       0.74171487      10.09788646        3      -0.00849171      -0.03960763      -0.03375919      -0.00513666
Cu       6.42343920       0.74171487      10.09788646        3       0.00840571      -0.03959618      -0.03380333      -0.00512777
Cu       2.56937568       2.96685948      10.09788646        3      -0.03855107       0.01245954      -0.03375482      -0.00512959
Cu       5.13875136       2.96685948      10.09788646        3      -0.00001705      -0.00003542      -0.03746030       0.01228959
Cu       7.70812704       2.96685948      10.09788646        3       0.03857856       0.01249850      -0.03383656      -0.00512982
Cu       3.85406352       5.19200409      10.09788646        3      -0.03009143       0.02710632      -0.03376458      -0.00512404
Cu       6.42343920       5.19200409      10.09788646        3       0.03009419       0.02715681      -0.03381437      -0.00513365
Cu       8.99281488       5.19200409      10.09788646        3      -0.00003517      -0.00000187      -0.02646880       0.00157915
Cu      -0.00001456       1.48341895      12.22216237        2       0.00774218      -0.00432850       0.09667076      -0.00596167
Cu       2.56938632       1.48343972      12.22228812        2      -0.00780221      -0.00445576       0.09642277      -0.00596840
Cu       5.13868200       1.48341490      12.22229490        2       0.00024679       0.01084551      -0.02955831      -0.01463718
Cu       1.28472730       3.70860469      12.22229670        2      -0.00019610       0.00105671       0.10145667       0.00366206
Cu       3.85404919       3.70853617      12.22226661        2       0.00946797      -0.00520209      -0.02942306      -0.01463632
Cu       6.42343137       3.70855859      12.22219237        2      -0.00919852      -0.00534300      -0.02935598      -0.01463630
Cu       2.56933175       5.93372331      12.22226822        2      -0.00087019      -0.00052181       0.10154328       0.00365918
Cu       5.13873976       5.93371007      12.22221793        2       0.00002914       0.00883767       0.09651606      -0.00596649
Cu       7.70811165       5.93376676      12.22227910        2       0.00090234      -0.00082750       0.10155058       0.00366080
Cu       0.00003176       0.00005032      14.34901118        1      -0.03836689      -0.02230154       0.24800450      -0.00071782
Cu       2.56930125       0.00001804      14.34916312        1       0.03866364      -0.02203266       0.24779807      -0.00074038
Cu       5.13864853       0.00002580      14.34922433        1       0.00034956      -0.14039570       0.22820731      -0.00244836
Cu       1.28470809       2.22517124      14.34907163        1       0.00016349       0.04438077       0.24790889      -0.00072809
Cu       3.85409307       2.22518508      14.34928516        1       0.01246815       0.00714028       0.49297826       0.00218202
Cu       6.42349021       2.22507450      14.34904494        1      -0.01259552       0.00741947       0.49333620       0.00218530
Cu       2.56959011       4.45037276      14.34913478        1      -0.12207162       0.06993678       0.22836943      -0.00243666
Cu       5.13896751       4.45026038      14.34907842        1      -0.00058907      -0.01438299       0.49328140       0.00218642
Cu       7.70816084       4.45028686      14.34912297        1       0.12174214       0.07017643       0.22832395      -0.00243812
H        5.13886676       2.96683127      15.27449439        0      -0.00001127       0.00000695      -0.37403970       0.04703240
