37
Lattice="7.708127040155146 0.0 0.0 3.854063520077573 6.675433832372109 0.0 0.0 0.0 22.29365937364323" Properties=species:S:1:pos:R:3:tags:I:1:forces:R:3:charge:R:1 energy=-4604.18945218211 free_energy=-4604.18945218211 stress="-0.013099513897431317 6.898391177570856e-07 4.2580323719952804e-07 6.898391177570856e-07 -0.013099446531714957 9.844047853841914e-08 4.2580323719952804e-07 9.844047853841914e-08 -0.017339907984263592" dipole="0.6629328271759352 0.382759319072748 0.5266465556866667" pbc="T T F"
Cu       0.00000000       0.00000000       8.00000000        4       0.07587912       0.04379791      -0.29378291       0.01065001
Cu       2.56937568       0.00000000       8.00000000        4      -0.07582605       0.04377973      -0.29382251       0.01062205
Cu       5.13875136       0.00000000       8.00000000        4      -0.00005633       0.02805217      -0.28369902       0.01824134
Cu       1.28468784       2.22514461       8.00000000        4       0.00001344      -0.08760892      -0.29377990       0.01063932
Cu       3.85406352       2.22514461       8.00000000        4       0.02415342       0.01395040      -0.30540288      -0.01195376
Cu       6.42343920       2.22514461       8.00000000        4      -0.02417215       0.01395330      -0.30539785      -0.01195203
Cu       2.56937568       4.45028922       8.00000000        4       0.02431826      -0.01404594      -0.28368350       0.01823713
Cu       5.13875136       4.45028922       8.00000000        4      -0.00000280      -0.02789432      -0.30540971      -0.01195335
Cu       7.70812704       4.45028922       8.00000000        4      -0.02431914      -0.01397780      -0.28369927       0.01824297
Cu       1.28468784       0.74171487      10.09788646        3       0.00007769       0.00001894      -0.05417808      -0.05106671
Cu       3.85406352       0.74171487      10.09788646        3       0.00570509      -0.04018545      -0.07761658      -0.00452370
Cu       6.42343920       0.74171487      10.09788646        3      -0.00580390      -0.04016498      -0.07762568      -0.00452778
Cu       2.56937568       2.96685948      10.09788646        3      -0.03192757       0.02506092      -0.07758903      -0.00452203
Cu       5.13875136       2.96685948      10.09788646        3      -0.00004628      -0.00005175      -0.15389188       0.03040556
Cu       7.70812704       2.96685948      10.09788646        3       0.03200344       0.02505056      -0.07771191      -0.00452046
Cu       3.85406352       5.19200409      10.09788646        3      -0.03771096       0.01506766      -0.07760576      -0.00452278
Cu       6.42343920       5.19200409      10.09788646        3       0.03769914       0.01517820      -0.07767076      -0.00452451
Cu       8.99281488       5.19200409      10.09788646        3      -0.00002028       0.00000195      -0.04806815      -0.01967391
Cu      -0.00001456       1.48341895      12.22216237        2       0.01671531      -0.00948109       0.01943692      -0.00721864
Cu       2.56938632       1.48343972      12.22228812        2      -0.01678554      -0.00964761       0.01912438      -0.00722687
Cu       5.13868200       1.48341490      12.22229490        2       0.00024441       0.03003273      -0.10026567      -0.08981445
Cu       1.28472730       3.70860469      12.22229670        2      -0.00021346      -0.04312527       0.06695969      -0.00674739
Cu       3.85404919       3.70853617      12.22226661        2       0.02607802      -0.01480182      -0.10014196      -0.08981119
Cu       6.42343137       3.70855859      12.22219237        2      -0.02578879      -0.01492338      -0.10007420      -0.08981682
Cu       2.56933175       5.93372331      12.22226822        2       0.03738576       0.02156827       0.06707653      -0.00673796
Cu       5.13873976       5.93371007      12.22221793        2       0.00006029       0.01918434       0.01926314      -0.00722571
Cu       7.70811165       5.93376676      12.22227910        2      -0.03737780       0.02124965       0.06706510      -0.00675426
Cu       0.00003176       0.00005032      14.34901118        1       0.01359861       0.00762291       0.39547934      -0.06423645
Cu       2.56930125       0.00001804      14.34916312        1      -0.01322231       0.00796778       0.39526610      -0.06428264
Cu       5.13864853       0.00002580      14.34922433        1       0.00035973      -0.12030145       0.27237910      -0.02753805
Cu       1.28470809       2.22517124      14.34907163        1       0.00013297      -0.01558980       0.39538340      -0.06426662
Cu       3.85409307       2.22518508      14.34928516        1      -0.35615608      -0.20569066       0.46752277       0.36408911
Cu       6.42349021       2.22507450      14.34904494        1       0.35586627      -0.20525726       0.46794585       0.36399535
Cu       2.56959011       4.45037276      14.34913478        1      -0.10467118       0.05991337       0.27253047      -0.02753893
Cu       5.13896751       4.45026038      14.34907842        1      -0.00065299       0.41118870       0.46787480       0.36402931
Cu       7.70816084       4.45028686      14.34912297        1       0.10436540       0.06011621       0.27251219      -0.02751815
O        5.13887533       2.96686224      15.37402144        0       0.00009723      -0.00000822       0.00529742      -0.48867702
