37
Lattice="7.708127040155146 0.0 0.0 3.854063520077573 6.675433832372109 0.0 0.0 0.0 22.29365937364323" Properties=species:S:1:pos:R:3:tags:I:1:forces:R:3:charge:R:1 energy=-4604.182523919518 free_energy=-4604.182523919518 stress="-0.012871459185833186 7.124127209411617e-07 3.854002150825099e-07 7.124127209411617e-07 -0.012871422211663135 1.1652203479539634e-07 3.854002150825099e-07 1.1652203479539634e-07 -0.01673932578096271" dipole="0.6216208950992915 0.35891676909579545 0.4521309212431975" pbc="T T F"
Cu       0.00000000       0.00000000       8.00000000        4       0.07401356       0.04272065      -0.29095527       0.01091643
Cu       2.56937568       0.00000000       8.00000000        4      -0.07396009       0.04270240      -0.29099489       0.01088856
Cu       5.13875136       0.00000000       8.00000000        4      -0.00005691       0.02432418      -0.28285676       0.01821127
Cu       1.28468784       2.22514461       8.00000000        4       0.00001326      -0.08545408      -0.29095248       0.01090579
Cu       3.85406352       2.22514461       8.00000000        4       0.02940250       0.01698214      -0.30445350      -0.01140362
Cu       6.42343920       2.22514461       8.00000000        4      -0.02942093       0.01698308      -0.30444805      -0.01140111
Cu       2.56937568       4.45028922       8.00000000        4       0.02109057      -0.01218302      -0.28284166       0.01820679
Cu       5.13875136       4.45028922       8.00000000        4      -0.00000469      -0.03395559      -0.30446023      -0.01140295
Cu       7.70812704       4.45028922       8.00000000        4      -0.02108973      -0.01211350      -0.28285667       0.01821315
Cu       1.28468784       0.74171487      10.09788646        3       0.00007547       0.00001857      -0.05515745      -0.04981413
Cu       3.85406352       0.74171487      10.09788646        3       0.00395199      -0.04138627      -0.07752719      -0.00496440
Cu       6.42343920       0.74171487      10.09788646        3      -0.00404967      -0.04136545      -0.07753680      -0.00496931
Cu       2.56937568       2.96685948      10.09788646        3      -0.03384353       0.02414332      -0.07749914      -0.00496270
Cu       5.13875136       2.96685948      10.09788646        3      -0.00004724      -0.00005144      -0.15764286       0.03027596
Cu       7.70812704       2.96685948      10.09788646        3       0.03392034       0.02413131      -0.07762258      -0.00496225
Cu       3.85406352       5.19200409      10.09788646        3      -0.03787355       0.01718628      -0.07751570      -0.00496389
Cu       6.42343920       5.19200409      10.09788646        3       0.03786148       0.01729800      -0.07758164      -0.00496545
Cu       8.99281488       5.19200409      10.09788646        3      -0.00002006       0.00000240      -0.04775065      -0.01995324
Cu      -0.00001456       1.48341895      12.22216237        2       0.01579650      -0.00894967       0.03149725      -0.00783102
Cu       2.56938632       1.48343972      12.22228812        2      -0.01586720      -0.00911849       0.03118419      -0.00784190
Cu       5.13868200       1.48341490      12.22229490        2       0.00024355       0.03384172      -0.08618371      -0.08805409
Cu       1.28472730       3.70860469      12.22229670        2      -0.00021672      -0.04119470       0.07473369      -0.00514535
Cu       3.85404919       3.70853617      12.22226661        2       0.02937723      -0.01670624      -0.08606083      -0.08805152
Cu       6.42343137       3.70855859      12.22219237        2      -0.02908694      -0.01682675      -0.08599284      -0.08805581
Cu       2.56933175       5.93372331      12.22226822        2       0.03571155       0.02060433       0.07484904      -0.00513577
Cu       5.13873976       5.93371007      12.22221793        2       0.00006215       0.01812367       0.03132195      -0.00783987
Cu       7.70811165       5.93376676      12.22227910        2      -0.03570686       0.02028321       0.07483857      -0.00515230
Cu       0.00003176       0.00005032      14.34901118        1       0.01295964       0.00725756       0.38770278      -0.05983776
Cu       2.56930125       0.00001804      14.34916312        1      -0.01258606       0.00759751       0.38749363      -0.05988797
Cu       5.13864853       0.00002580      14.34922433        1       0.00035933      -0.12171910       0.26948325      -0.02410189
Cu       1.28470809       2.22517124      14.34907163        1       0.00013231      -0.01485249       0.38760805      -0.05986907
Cu       3.85409307       2.22518508      14.34928516        1      -0.23167578      -0.13382843       0.56707977       0.35310604
Cu       6.42349021       2.22507450      14.34904494        1       0.23140601      -0.13339294       0.56750644       0.35299463
Cu       2.56959011       4.45037276      14.34913478        1      -0.10589871       0.06062081       0.26963477      -0.02410479
Cu       5.13896751       4.45026038      14.34907842        1      -0.00065838       0.26748742       0.56742984       0.35304045
Cu       7.70816084       4.45028686      14.34912297        1       0.10559265       0.06082532       0.26961732      -0.02408115
O        5.13886541       2.96686595      15.41131355        0       0.00009296      -0.00003572      -0.37308966      -0.48800578
