29
Lattice="8.493 0.0 0.0 4.2465 6.005457892617349 0.0 0.0 0.0 20.003638595078232" Properties=species:S:1:pos:R:3:tags:I:1:forces:R:3 charge=0 spin=0 energy=-194.76896221601282 free_energy=-194.76896221601282 stress="0.05323196202516556 -0.00011672077380353585 0.0003498797887004912 -0.00011672077380353585 0.0223857369273901 0.0018915821565315127 0.0003498797887004912 0.0018915821565315127 0.008973350748419762" pbc="T T T"
Fe       0.00000000       0.00000000       8.00000000        3      -0.03299941       0.09627393       0.47666231
Fe       2.83100000       0.00000000       8.00000000        3       0.04136396       0.09417230       0.46285135
Fe       5.66200000       0.00000000       8.00000000        3       0.01429927       0.08031000       0.49576902
Fe       1.41550000       2.00181930       8.00000000        3       0.02343608       0.13607800       0.43079880
Fe       4.24650000       2.00181930       8.00000000        3       0.04414086       0.09486417       0.60227990
Fe       7.07750000       2.00181930       8.00000000        3      -0.04527632       0.07217966       0.63085574
Fe       2.83100000       4.00363860       8.00000000        3       0.03078553       0.13106550       0.42402041
Fe       5.66200000       4.00363860       8.00000000        3       0.00319421       0.10107479       0.63274229
Fe       8.49300000       4.00363860       8.00000000        3      -0.02293978       0.12576780       0.43324575
Fe       0.00000000       2.00181930      10.00181930        2      -0.08998576      -0.33817491      -0.64096475
Fe       2.83100000       2.00181930      10.00181930        2       0.04887281      -0.36291146      -0.64648223
Fe       5.66200000       2.00181930      10.00181930        2       0.03982677       0.30843654      -0.77871722
Fe       1.41550000       4.00363860      10.00181930        2       0.00550741      -0.21627213      -0.62390947
Fe       4.24650000       4.00363860      10.00181930        2      -0.36054459      -0.02069765      -0.32871923
Fe       7.07750000       4.00363860      10.00181930        2       0.40151769      -0.05866541      -0.33310857
Fe       2.83100000       6.00545789      10.00181930        2      -0.13434844       0.13522413      -0.38088986
Fe       5.66200000       6.00545789      10.00181930        2      -0.03312861      -0.48257697      -0.49062771
Fe       8.49300000       6.00545789      10.00181930        2       0.17452405       0.10660942      -0.37600443
Fe       0.05578121       0.52695709      11.83128647        1      -0.00590386       0.00317642      -0.01042722
Fe       2.80514120       0.50926700      11.82540975        1      -0.01351320       0.00673382       0.00260258
Fe       5.67677375       0.75241511      11.92983499        1       0.00033797       0.00548513      -0.00442763
Fe       1.44011086       2.56727268      11.84357995        1      -0.00572148      -0.00085074       0.00612184
Fe       3.95542653       2.67552570      11.93561914        1      -0.02072599       0.00762049      -0.00013700
Fe       7.40818445       2.68837702      11.94028354        1      -0.00749258      -0.00741297       0.00006614
Fe       2.67834585       4.67593459      11.86871329        1      -0.01049756      -0.00470934       0.00751446
Fe       5.68104087       4.38706722      11.83556422        1      -0.01655071       0.00245954      -0.00660609
Fe       8.66796759       4.67397067      11.86573694        1      -0.00228627      -0.00459828       0.00712184
N        5.67935040       2.54292058      12.82385482        0      -0.00885881      -0.01059211       0.00406385
H        5.68718816       2.52390158      13.86011884        0      -0.01703336      -0.00006971       0.00430480
