28
Lattice="8.493 0.0 0.0 4.2465 6.005457892617349 0.0 0.0 0.0 20.003638595078232" Properties=species:S:1:pos:R:3:tags:I:1:forces:R:3 charge=0 spin=0 energy=-188.542995041905 free_energy=-188.542995041905 stress="0.04657604172825813 -6.174199370434508e-05 9.792943274078425e-06 -6.174199370434508e-05 0.028337644413113594 -0.0015779495006427169 9.792943274078425e-06 -0.0015779495006427169 0.011442337185144424" pbc="T T T"
Fe       0.00000000       0.00000000       8.00000000        3      -0.02971325       0.02343981       0.48387289
Fe       2.83100000       0.00000000       8.00000000        3       0.00713038      -0.00124285       0.52193993
Fe       5.66200000       0.00000000       8.00000000        3       0.00411819       0.03407698       0.46199122
Fe       1.41550000       2.00181930       8.00000000        3      -0.06573296       0.00437049       0.58058798
Fe       4.24650000       2.00181930       8.00000000        3       0.07396545      -0.02736218       0.55679446
Fe       7.07750000       2.00181930       8.00000000        3       0.01222923      -0.01317958       0.49750584
Fe       2.83100000       4.00363860       8.00000000        3      -0.00237804       0.02900532       0.80408090
Fe       5.66200000       4.00363860       8.00000000        3       0.03211904       0.01611569       0.59589404
Fe       8.49300000       4.00363860       8.00000000        3      -0.04192291       0.02701883       0.59682894
Fe       0.00000000       2.00181930      10.00181930        2      -0.40222400      -0.11982707      -0.38715419
Fe       2.83100000       2.00181930      10.00181930        2       0.01808716      -0.18397059      -0.67326218
Fe       5.66200000       2.00181930      10.00181930        2       0.40455157      -0.08090692      -0.34778309
Fe       1.41550000       4.00363860      10.00181930        2      -0.34436858      -0.18928820      -0.18397914
Fe       4.24650000       4.00363860      10.00181930        2       0.35716763      -0.16677202      -0.17655902
Fe       7.07750000       4.00363860      10.00181930        2       0.00849601       0.01952508      -0.47237623
Fe       2.83100000       6.00545789      10.00181930        2      -0.03709710      -0.23050766      -0.74684376
Fe       5.66200000       6.00545789      10.00181930        2      -0.02378958      -0.08343261      -0.70357323
Fe       8.49300000       6.00545789      10.00181930        2       0.04548757      -0.13089448      -0.75267196
Fe       0.00306605      -0.02390981      11.83694503        1       0.16455233      -0.07319484      -0.03198910
Fe       2.82669240       0.09820562      11.83505314        1      -0.01576494       0.44028306      -0.10431106
Fe       5.65749198      -0.02042104      11.84104875        1      -0.16199811      -0.05057613      -0.02868788
Fe       1.43847965       2.03102687      11.83547276        1      -0.09184293       0.28765708      -0.08468831
Fe       4.22073991       2.02672231      11.83920163        1       0.06733426       0.26335138      -0.06519216
Fe       7.08093618       1.88625027      11.98698984        1       0.00202044      -0.15629363      -0.04516904
Fe       2.83260809       4.02451114      11.86261333        1       0.00687669       0.15856671      -0.00216416
Fe       5.75170485       4.05141571      12.03678837        1      -0.04735526       0.19211645      -0.05891464
Fe       8.40203323       4.05040137      12.03872942        1       0.06370222       0.21512708      -0.03230822
N        7.07727445       3.34197917      13.01808473        0      -0.00365047      -0.20320532      -0.20186776
