29
Lattice="8.493 0.0 0.0 4.2465 6.005457892617349 0.0 0.0 0.0 20.003638595078232" Properties=species:S:1:pos:R:3:tags:I:1:forces:R:3:charge:R:1 charge=0 spin=0 energy=-2231.276600755188 free_energy=-2231.276600755188 stress="0.026861433340992166 0.00036304950313428 -0.0010834249002886524 0.00036304950313428 0.0006775966087687212 0.0015255868531224835 -0.0010834249002886524 0.0015255868531224835 5.457536689436581e-05" dipole="-0.37957595242991427 0.1059181215611933 0.9304490665548859" pbc="T T T"
Fe       0.00000000       0.00000000       8.00000000        3       0.01998274       0.06821714      -0.04004731      -0.00241484
Fe       2.83100000       0.00000000       8.00000000        3       0.00819198       0.05892832      -0.10627967      -0.00320673
Fe       5.66200000       0.00000000       8.00000000        3       0.00800157       0.14693209      -0.08578255      -0.00380120
Fe       1.41550000       2.00181930       8.00000000        3      -0.01896623       0.06748003      -0.07743731      -0.00282963
Fe       4.24650000       2.00181930       8.00000000        3       0.00080246       0.05538689      -0.09115747      -0.00416797
Fe       7.07750000       2.00181930       8.00000000        3      -0.01331529       0.00662564      -0.00099857      -0.00315751
Fe       2.83100000       4.00363860       8.00000000        3      -0.04296600       0.11673710      -0.08837056      -0.00338376
Fe       5.66200000       4.00363860       8.00000000        3      -0.03991293      -0.02151404      -0.02828367      -0.00289020
Fe       8.49300000       4.00363860       8.00000000        3      -0.03551332       0.00706874      -0.00793897      -0.00362257
Fe       0.00000000       2.00181930      10.00181930        2      -0.04834665       0.02180222       0.19949038       0.00089092
Fe       2.83100000       2.00181930      10.00181930        2       0.05677588      -0.11226278      -0.13196989       0.00329888
Fe       5.66200000       2.00181930      10.00181930        2      -0.09124128       0.31697723       0.09225186       0.00355426
Fe       1.41550000       4.00363860      10.00181930        2       0.15279200       0.13575034       0.11730403       0.00152834
Fe       4.24650000       4.00363860      10.00181930        2      -0.15113000       0.15226401      -0.40511893       0.00090257
Fe       7.07750000       4.00363860      10.00181930        2       0.07433475      -0.20095508      -0.17071878       0.00994340
Fe       2.83100000       6.00545789      10.00181930        2      -0.05450843       0.14323386      -0.08941964       0.00306369
Fe       5.66200000       6.00545789      10.00181930        2      -0.12011870      -0.42642646      -0.47797721       0.00424181
Fe       8.49300000       6.00545789      10.00181930        2       0.03676076      -0.40151001      -0.08677204       0.00342958
Fe       0.12726763       0.56517577      11.84049183        1      -0.28923691       0.02942725       0.35454664      -0.02742842
Fe       2.84603649       0.57870060      11.81307720        1       0.35113796      -0.07727407       0.41726552       0.03056556
Fe       5.44068274       0.67079957      11.88013672        1      -0.03264862       0.00998071      -0.00980835       0.00685296
Fe       1.51521491       2.57650792      11.83905801        1       0.13800856       0.09227670       0.24348294       0.00104892
Fe       4.05513961       2.63868269      11.86595073        1      -0.25885186      -0.35418004      -0.13750917       0.01532696
Fe       7.08804888       2.40112033      11.85954878        1      -0.06971017       0.50414441       0.38384933       0.04272552
Fe       2.68660770       4.69551046      11.88982110        1      -0.16201204      -0.08870408      -0.03974540      -0.00073945
Fe       5.56870126       4.57582606      11.89265766        1       0.47780772       0.01608405       2.76748988       0.04980142
Fe       8.63823459       4.57932554      11.90274250        1      -0.28002329      -0.00067069       0.44246848       0.04005763
O        6.54938961       4.37707448      13.13627792        0      -0.01082359       0.00247929       0.00361355      -0.32220822
H        4.85318797       5.57648086      13.27156315        0       0.00984862      -0.00002922      -0.00795611       0.16261808
