28
Lattice="8.493 0.0 0.0 4.2465 6.005457892617349 0.0 0.0 0.0 20.003638595078232" Properties=species:S:1:pos:R:3:tags:I:1:forces:R:3 charge=0 spin=0 energy=-185.3119550199293 free_energy=-185.3119550199293 stress="0.05598773434758186 0.00015846124733798206 7.684554293518886e-05 0.00015846124733798206 0.01868174783885479 0.002306506969034672 7.684554293518886e-05 0.002306506969034672 0.008651007898151875" pbc="T T T"
Fe       0.00000000       0.00000000       8.00000000        3      -0.01151913       0.08493249       0.55937678
Fe       2.83100000       0.00000000       8.00000000        3      -0.00012363       0.15240294       0.40713993
Fe       5.66200000       0.00000000       8.00000000        3       0.02626358       0.12233465       0.49239132
Fe       1.41550000       2.00181930       8.00000000        3      -0.00362160       0.14244552       0.43559164
Fe       4.24650000       2.00181930       8.00000000        3       0.00910373       0.14030509       0.43909085
Fe       7.07750000       2.00181930       8.00000000        3      -0.00083102       0.10040427       0.55191851
Fe       2.83100000       4.00363860       8.00000000        3       0.01573088       0.11057062       0.52213776
Fe       5.66200000       4.00363860       8.00000000        3      -0.02505462       0.11977625       0.53177506
Fe       8.49300000       4.00363860       8.00000000        3       0.00433354       0.14366707       0.43808633
Fe       0.00000000       2.00181930      10.00181930        2       0.16503364      -0.20889547      -0.44034964
Fe       2.83100000       2.00181930      10.00181930        2       0.07232431      -0.12618871      -0.51875496
Fe       5.66200000       2.00181930      10.00181930        2      -0.24558571      -0.02946990      -0.44696772
Fe       1.41550000       4.00363860      10.00181930        2       0.05219009      -0.09285464      -0.47780764
Fe       4.24650000       4.00363860      10.00181930        2      -0.01504200       0.16606189      -0.36084256
Fe       7.07750000       4.00363860      10.00181930        2      -0.03144975      -0.43327984      -0.61459816
Fe       2.83100000       6.00545789      10.00181930        2      -0.10533328       0.15406497      -0.38691640
Fe       5.66200000       6.00545789      10.00181930        2       0.12540574      -0.21071842      -0.53603703
Fe       8.49300000       6.00545789      10.00181930        2      -0.00158924      -0.29808480      -0.56371909
Fe       0.10450710       0.52291672      11.82009719        1      -0.01093928      -0.01776968      -0.01073150
Fe       2.87432711       0.60880725      11.84593795        1       0.01199513      -0.01143233      -0.00470923
Fe       5.49829054       0.61001753      11.85418538        1      -0.00882270       0.00315485       0.00009092
Fe       1.49506109       2.58468476      11.84349061        1      -0.03615717      -0.01543061      -0.00485631
Fe       4.15291266       2.65609254      11.86437835        1       0.00866136       0.00253061      -0.00272448
Fe       7.08144435       2.43998261      11.84941559        1       0.00635740       0.02729294       0.00638392
Fe       2.69932593       4.66854616      11.86631341        1      -0.01442219      -0.01746603       0.00403364
Fe       5.80179160       4.55699487      11.86514829        1      -0.00155723      -0.00997751      -0.01149352
Fe       8.44961791       4.54224879      11.86053038        1       0.00917095      -0.00161496      -0.00229772
H        7.11549289       3.82640367      12.87701615        0       0.00547861       0.00323876      -0.00521093
