29
Lattice="8.493 0.0 0.0 4.2465 6.005457892617349 0.0 0.0 0.0 20.003638595078232" Properties=species:S:1:pos:R:3:tags:I:1:forces:R:3:charge:R:1 charge=0 spin=0 energy=-2336.6633500866137 free_energy=-2336.6633500866137 stress="0.021042705212440307 0.0006516209257255185 0.0009780652891631823 0.0006516209257255185 0.005742942780614706 -0.0007188822914161376 0.0009780652891631823 -0.0007188822914161376 -0.005331370628828717" dipole="-0.11550584874922594 0.2455465303566871 0.6362681796017884" pbc="T T T"
Fe       0.00000000       0.00000000       8.00000000        3       0.07342565      -0.06677809      -0.11413302      -0.00211843
Fe       2.83100000       0.00000000       8.00000000        3      -0.14362376       0.00677027      -0.04857844      -0.00378136
Fe       5.66200000       0.00000000       8.00000000        3       0.05194205      -0.00905998      -0.04643022      -0.00314001
Fe       1.41550000       2.00181930       8.00000000        3       0.04142206      -0.09204910      -0.08730597      -0.00323206
Fe       4.24650000       2.00181930       8.00000000        3      -0.11613604      -0.01141932      -0.03326173      -0.00373621
Fe       7.07750000       2.00181930       8.00000000        3      -0.01258505      -0.00161253      -0.03438432      -0.00376735
Fe       2.83100000       4.00363860       8.00000000        3       0.04657154      -0.06003914      -0.06748407      -0.00258079
Fe       5.66200000       4.00363860       8.00000000        3      -0.04088561       0.00605551      -0.09295135      -0.00316088
Fe       8.49300000       4.00363860       8.00000000        3       0.08171089       0.03003419      -0.06038820      -0.00403756
Fe       0.00000000       2.00181930      10.00181930        2      -0.14260771       0.41145935       0.00012297       0.00232044
Fe       2.83100000       2.00181930      10.00181930        2      -0.14131330      -0.26150380       0.00588383      -0.00072897
Fe       5.66200000       2.00181930      10.00181930        2       0.34760207      -0.22260247      -0.98540132       0.00844731
Fe       1.41550000       4.00363860      10.00181930        2       0.16862365       0.42381254      -0.38460379       0.00383545
Fe       4.24650000       4.00363860      10.00181930        2       0.00307335      -0.21710367      -0.15186051       0.00219272
Fe       7.07750000       4.00363860      10.00181930        2       0.00272025      -0.08067318      -0.69490249       0.00482111
Fe       2.83100000       6.00545789      10.00181930        2      -0.17295737       0.64590321      -0.45475541       0.00233234
Fe       5.66200000       6.00545789      10.00181930        2      -0.03746702      -0.26088812       0.28456424      -0.00000114
Fe       8.49300000       6.00545789      10.00181930        2       0.47344913      -0.30539177      -1.07429261       0.00445897
Fe      -0.39294215      -0.64081239      11.89914594        1       0.02958705       0.18386931       0.50490158      -0.03286818
Fe       3.15129007       0.29900728      11.82621820        1      -0.71100581       0.09239975       0.55094568       0.01080551
Fe       5.67580923      -0.51311943      11.82642584        1       0.12970766      -0.27127286       0.22431348       0.00566101
Fe       1.05372265       1.35349095      11.91274636        1      -0.02279258       0.12200235       0.17724922      -0.00239923
Fe       4.55718257       2.19495814      11.91059787        1       0.91388027       0.21588134       2.57922800       0.06300305
Fe       7.10981515       1.49918791      11.89013415        1      -0.18659312       0.26918794       0.21955687       0.03836666
Fe       2.47355433       3.34496955      11.89808500        1      -0.04282730       0.12756401       0.34344713       0.00123721
Fe       5.98591592       4.41079687      11.91895696        1      -0.62662213      -0.82763577       2.01137783       0.02958873
Fe       8.55500895       3.53463000      11.82006576        1       0.17776782      -0.15366735       0.21660086       0.01199774
O        5.50918663       2.88340813      13.11680921        0       0.00019194      -0.00054734       0.00039643      -0.35099722
H        4.52902665       4.27574522      12.91942499        0      -0.00323011      -0.00546009       0.00052368       0.22748114
