28
Lattice="8.493 0.0 0.0 4.2465 6.005457892617349 0.0 0.0 0.0 20.003638595078232" Properties=species:S:1:pos:R:3:tags:I:1:forces:R:3 charge=0 spin=0 energy=-187.9444900217634 free_energy=-187.9444900217634 stress="0.046665534377098083 0.0007136453641578555 -3.6449707696561973e-09 0.0007136453641578555 0.028026068583130836 -6.600805679823907e-09 -3.6449707696561973e-09 -6.600805679823907e-09 0.010431671515107155" pbc="T T T"
Fe       0.00000000       0.00000000       8.00000000        3       0.00000039       0.00000108       0.43495721
Fe       2.83100000       0.00000000       8.00000000        3       0.02073138       0.00187296       0.52005607
Fe       5.66200000       0.00000000       8.00000000        3      -0.02073170      -0.00187047       0.52005821
Fe       1.41550000       2.00181930       8.00000000        3      -0.10833822      -0.00664289       0.67303777
Fe       4.24650000       2.00181930       8.00000000        3       0.06312359      -0.03215134       0.57668400
Fe       7.07750000       2.00181930       8.00000000        3       0.01180555      -0.01956703       0.51779401
Fe       2.83100000       4.00363860       8.00000000        3       0.10833859       0.00664233       0.67303777
Fe       5.66200000       4.00363860       8.00000000        3      -0.01180597       0.01956722       0.51779461
Fe       8.49300000       4.00363860       8.00000000        3      -0.06312428       0.03215058       0.57668406
Fe       0.00000000       2.00181930      10.00181930        2      -0.38854355       0.16565372      -0.16909817
Fe       2.83100000       2.00181930      10.00181930        2       0.13728300       0.02853014      -0.54342622
Fe       5.66200000       2.00181930      10.00181930        2       0.38090175      -0.13862333      -0.52601969
Fe       1.41550000       4.00363860      10.00181930        2      -0.13728230      -0.02853080      -0.54342616
Fe       4.24650000       4.00363860      10.00181930        2       0.38854414      -0.16565743      -0.16909868
Fe       7.07750000       4.00363860      10.00181930        2      -0.38090083       0.13861859      -0.52601999
Fe       2.83100000       6.00545789      10.00181930        2       0.09727562      -0.14848571      -0.76741648
Fe       5.66200000       6.00545789      10.00181930        2      -0.09727712       0.14848483      -0.76741689
Fe       8.49300000       6.00545789      10.00181930        2      -0.00000115       0.00000057      -0.65100956
Fe      -0.00000031       0.00000031      11.84174798        1      -0.00000095       0.00000110      -0.03699570
Fe       2.82262537       0.02336966      11.84144522        1       0.02277978       0.13245878      -0.07990033
Fe       5.67037507      -0.02336897      11.84144510        1      -0.02277779      -0.13245727      -0.07990186
Fe       1.42350068       1.99763211      11.86074936        1       0.03386965      -0.00711115      -0.01659622
Fe       4.22861306       2.00401909      11.86268189        1       0.02570947       0.11325428      -0.02777685
Fe       7.02906304       1.93046982      12.03113835        1      -0.03518236      -0.47834066      -0.04742913
Fe       2.82299910       4.00782577      11.86074910        1      -0.03386946       0.00711278      -0.01659711
Fe       5.71043647       4.07498911      12.03113797        1       0.03518127       0.47834125      -0.04742824
Fe       8.51088699       4.00143902      11.86268212        1      -0.02570941      -0.11325187      -0.02777494
N        6.36975098       3.00273030      13.18581565        0       0.00000087      -0.00000027       0.03322790
