29
Lattice="8.493 0.0 0.0 4.2465 6.005457892617349 0.0 0.0 0.0 20.003638595078232" Properties=species:S:1:pos:R:3:tags:I:1:forces:R:3:charge:R:1 charge=0 spin=0 energy=-2467.577500900806 free_energy=-2467.577500900806 stress="0.018116562028204414 -0.0025138730383549553 0.0002788119265846021 -0.0025138730383549553 0.004007723885512311 0.0008068689343723846 0.0002788119265846021 0.0008068689343723846 -0.0036861088464922934" dipole="-0.2812397521608121 -0.34246897616889616 0.9221639405205351" pbc="T T T"
Fe       0.00000000       0.00000000       8.00000000        3       0.02786937      -0.00149931       0.01071125      -0.00179560
Fe       2.83100000       0.00000000       8.00000000        3       0.01742678      -0.03118071      -0.04292200      -0.00064404
Fe       5.66200000       0.00000000       8.00000000        3       0.00439590       0.03577175      -0.04192561      -0.00111027
Fe       1.41550000       2.00181930       8.00000000        3      -0.14339825       0.00769486       0.03648220      -0.00159014
Fe       4.24650000       2.00181930       8.00000000        3       0.01448627      -0.02735885      -0.12685264      -0.00118427
Fe       7.07750000       2.00181930       8.00000000        3       0.06231532      -0.02476763      -0.02554405      -0.00129921
Fe       2.83100000       4.00363860       8.00000000        3       0.06733332      -0.03321772       0.07902523      -0.00229692
Fe       5.66200000       4.00363860       8.00000000        3      -0.07521571      -0.01159337       0.03867272      -0.00138828
Fe       8.49300000       4.00363860       8.00000000        3      -0.06738742       0.04574063      -0.07564025      -0.00160547
Fe       0.00000000       2.00181930      10.00181930        2      -0.05335473       0.11837789       0.19821427      -0.00049403
Fe       2.83100000       2.00181930      10.00181930        2       0.44051370       0.03260697      -0.74712404       0.00182532
Fe       5.66200000       2.00181930      10.00181930        2       0.06645100       0.02105018      -0.65640463       0.00185466
Fe       1.41550000       4.00363860      10.00181930        2      -0.37538987      -0.19696449      -0.71845355       0.00049634
Fe       4.24650000       4.00363860      10.00181930        2       0.24063442      -0.01193703       0.43398576      -0.00029954
Fe       7.07750000       4.00363860      10.00181930        2       0.09702871      -0.16678835      -1.44075963       0.00939983
Fe       2.83100000       6.00545789      10.00181930        2      -0.61249357      -0.11216823       0.05238576       0.00063987
Fe       5.66200000       6.00545789      10.00181930        2       0.63263059       0.00320543      -0.05387229       0.00052523
Fe       8.49300000       6.00545789      10.00181930        2      -0.00095234       0.16687771      -1.46045102       0.00370120
Fe      -0.00001286      -0.00009696      11.75033812        1      -0.21543336      -0.00120967       0.00793098       0.01243527
Fe       3.07159637       0.03099151      11.91004278        1       0.48198690       0.16748509       2.51809673       0.05361875
Fe       5.42143221      -0.03111893      11.91005365        1       0.50591605      -0.20668342       0.39651337       0.03355757
Fe       1.65226266       1.83399823      11.85374402        1      -0.03779098      -0.00957420       0.29787433       0.01127102
Fe       4.20554567       2.38623638      11.86516243        1      -0.25629633       0.44963539      -0.21271604       0.02694646
Fe       6.79319282       1.77884592      11.98628905        1      -0.26715698       1.19197065       1.98122775       0.05371721
Fe       2.59420062       4.17122996      11.85375328        1       0.42167176       0.05952579       0.41994053       0.01050255
Fe       5.94626350       4.22678979      11.98607328        1      -0.45313528      -0.81702019       1.67343613       0.08479176
Fe       8.53396109       3.61914660      11.86517145        1      -0.68213645       0.34949985       1.78176090       0.07011652
O        6.58916805       3.28236340      13.14873475        0      -0.00128750      -0.00169985       0.00124296      -0.17156489
O        7.58308324       4.71129008      13.12903482        0       0.00020763      -0.00091143       0.00153392      -0.19012689
