41
Lattice="7.708127040155146 0.0 0.0 3.854063520077573 6.675433832372109 0.0 0.0 0.0 22.29365937364323" Properties=species:S:1:pos:R:3:tags:I:1:forces:R:3:charge:R:1 energy=-4700.566774354985 free_energy=-4700.566774354985 stress="-0.017697266316262564 0.0025575054666802624 -0.0012856369086428792 0.0025575054666802624 -0.014721976878564615 0.0007588840879798813 -0.0012856369086428792 0.0007588840879798813 -0.014457855198797736" dipole="-0.37903307197371483 -0.5438557922803794 2.03477848031589" pbc="T T F"
Cu      -0.00000000      -0.00000000       8.00000000        4       0.03619752       0.01646313      -0.28103525      -0.00682941
Cu       2.56937568       0.00000000       8.00000000        4      -0.04014900       0.02319436      -0.32584314      -0.01175338
Cu       5.13875136      -0.00000000       8.00000000        4      -0.00482597       0.00433404      -0.28594309       0.01145532
Cu       1.28468784       2.22514461       8.00000000        4       0.00381490      -0.03953928      -0.28107442      -0.00685269
Cu       3.85406352       2.22514461       8.00000000        4       0.04157003       0.06871632      -0.32615243      -0.00728047
Cu       6.42343920       2.22514461       8.00000000        4      -0.05499106       0.03176223      -0.32928514      -0.03613581
Cu       2.56937568       4.45028922       8.00000000        4       0.03486682      -0.02015562      -0.29067665      -0.01578280
Cu       5.13875136       4.45028922       8.00000000        4      -0.03875174      -0.07035622      -0.32616523      -0.00731521
Cu       7.70812704       4.45028922       8.00000000        4      -0.00611888       0.00197171      -0.28591652       0.01149303
Cu       1.28468784       0.74171487      10.09788646        3       0.03830407      -0.02206304      -0.08274145       0.02644210
Cu       3.85406352       0.74171487      10.09788646        3      -0.00095111      -0.02087845      -0.00378213      -0.01697599
Cu       6.42343920       0.74171487      10.09788646        3      -0.01500648       0.03096040      -0.12000351       0.01782488
Cu       2.56937568       2.96685948      10.09788646        3       0.04621002       0.04341929      -0.02317438       0.00330215
Cu       5.13875136       2.96685948      10.09788646        3       0.01687697      -0.00980090      -0.01373965       0.00948401
Cu       7.70812704       2.96685948      10.09788646        3      -0.03417380      -0.00260087      -0.12002792       0.01784292
Cu       3.85406352       5.19200409      10.09788646        3      -0.01449071      -0.06180950      -0.02316014       0.00331000
Cu       6.42343920       5.19200409      10.09788646        3       0.01755635       0.01131787      -0.00383029      -0.01698538
Cu       8.99281488       5.19200409      10.09788646        3       0.02085613      -0.01200141      -0.02275927      -0.00628018
Cu      -0.00001456       1.48341895      12.22216237        2      -0.03034621       0.01767978       0.03163092      -0.01254295
Cu       2.56938632       1.48343972      12.22228812        2       0.00494095      -0.02938393       0.07357480      -0.02227450
Cu       5.13868200       1.48341490      12.22229490        2      -0.01451745       0.01399861       0.05298593      -0.01530655
Cu       1.28472730       3.70860469      12.22229670        2       0.04252625       0.06407772       0.07572390      -0.01057371
Cu       3.85404919       3.70853617      12.22226661        2      -0.04472244       0.02614572      -0.00403664       0.00960559
Cu       6.42343137       3.70855859      12.22219237        2      -0.01938022       0.00585978       0.05317497      -0.01532275
Cu       2.56933175       5.93372331      12.22226822        2      -0.03417323      -0.06902443       0.07580460      -0.01057829
Cu       5.13873976       5.93371007      12.22221793        2       0.02802430       0.01021890       0.07366297      -0.02227379
Cu       7.70811165       5.93376676      12.22227910        2      -0.02156932       0.01218989       0.02455834       0.04184108
Cu       0.00003176       0.00005032      14.34901118        1       0.05606432      -0.47873277       0.04001717       0.11234063
Cu       2.56930125       0.00001804      14.34916312        1       0.29707811      -0.17135162       0.24089146      -0.03942470
Cu       5.13864853       0.00002580      14.34922433        1      -0.26806311      -0.18460530       0.22792340      -0.07092362
Cu       1.28470809       2.22517124      14.34907163        1       0.44244100       0.19079465       0.03904723       0.11220796
Cu       3.85409307       2.22518508      14.34928516        1       0.01147065      -0.02674458       0.36659218      -0.08247856
Cu       6.42349021       2.22507450      14.34904494        1      -0.68599046       0.39591333      -0.09597289       0.10924564
Cu       2.56959011       4.45037276      14.34913478        1       0.00095002      -0.00136245       0.38186316      -0.07705098
Cu       5.13896751       4.45026038      14.34907842        1       0.02824118       0.00349253       0.36678278      -0.08247572
Cu       7.70816084       4.45028686      14.34912297        1       0.02586704       0.32497280       0.22790441      -0.07093687
O        7.93256630       1.35386234      15.96034327        0      22.26222354     -12.85008772      -7.30193751      -0.45413864
C        6.75133745       2.03583555      16.34796821        0     -22.20184035      12.83679310       7.20222542       0.09857248
H        6.95799041       2.96602443      16.88132645        0       0.01829166       0.08263343       0.04725154       0.05571746
H        6.05011785       1.39235924      16.88179048        0      -0.07642857      -0.07005712       0.05812412       0.05584059
H        7.70380224       1.48911987      17.06577998        0      -0.00170805       0.00015215      -0.00633664       0.42196712
