29
Lattice="8.493 0.0 0.0 4.2465 6.005457892617349 0.0 0.0 0.0 20.003638595078232" Properties=species:S:1:pos:R:3:initial_charges:R:1:tags:I:1:forces:R:3 charge=0 spin=0 energy=-193.64716179334437 free_energy=-193.64716179334437 stress="0.0524408258497715 -0.00044190266635268927 -0.00014229542284738272 -0.00044190266635268927 0.01839952915906906 0.0019798423163592815 -0.00014229542284738272 0.0019798423163592815 0.008792469277977943" dipole="-0.3824929295232908 0.05804356532292251 1.3489042099730941" pbc="T T T"
Fe       0.00000000       0.00000000       8.00000000      -0.00530359        3      -0.02141391       0.11188173       0.44465873
Fe       2.83100000       0.00000000       8.00000000      -0.00581675        3       0.02823049       0.09179397       0.44911069
Fe       5.66200000       0.00000000       8.00000000      -0.00453133        3       0.01750184       0.08177724       0.49617803
Fe       1.41550000       2.00181930       8.00000000      -0.00553500        3       0.00877075       0.14193091       0.43750095
Fe       4.24650000       2.00181930       8.00000000      -0.00515819        3       0.06307536       0.09526128       0.61359555
Fe       7.07750000       2.00181930       8.00000000      -0.00553975        3      -0.06021783       0.07745844       0.61594456
Fe       2.83100000       4.00363860       8.00000000      -0.00505631        3       0.00828663       0.13535753       0.41369933
Fe       5.66200000       4.00363860       8.00000000      -0.00580294        3      -0.00558017       0.09391325       0.60594881
Fe       8.49300000       4.00363860       8.00000000      -0.00536917        3      -0.02921335       0.12982625       0.46233973
Fe       0.00000000       2.00181930      10.00181930       0.00135300        2      -0.09068232      -0.20011707      -0.61483341
Fe       2.83100000       2.00181930      10.00181930       0.00157414        2      -0.08503623      -0.32612288      -0.75322330
Fe       5.66200000       2.00181930      10.00181930       0.01020290        2       0.06862036       0.26345778      -0.75838774
Fe       1.41550000       4.00363860      10.00181930       0.00534713        2       0.00797796      -0.18760057      -0.56235564
Fe       4.24650000       4.00363860      10.00181930       0.00057441        2      -0.30481967      -0.18353058      -0.37654760
Fe       7.07750000       4.00363860      10.00181930       0.00191188        2       0.32578766      -0.04108752      -0.30772746
Fe       2.83100000       6.00545789      10.00181930      -0.00010138        2      -0.11214458       0.04978599      -0.32002488
Fe       5.66200000       6.00545789      10.00181930       0.00173173        2      -0.08869977      -0.42970553      -0.54492700
Fe       8.49300000       6.00545789      10.00181930       0.00172937        2       0.17739959       0.11136193      -0.34423664
Fe       0.07997106       0.55282550      11.82324657      -0.00469737        1       0.00558366       0.01450633       0.00000772
Fe       2.76757791       0.51619460      11.81101508      -0.00547945        1      -0.00148873       0.00276050       0.00142529
Fe       4.38828434      -1.37880831      11.84620776      -0.00699844        1       0.02031746       0.00495793       0.00238042
Fe       1.43135524       2.57338916      11.84503166      -0.01646436        1       0.00349926       0.00949222      -0.00021052
Fe       4.01030696       2.59524975      11.93892503      -0.02119200        1       0.02027573      -0.01059709       0.00882620
Fe       5.67269458       0.66733950      11.90713609       0.01697280        1       0.01737875      -0.03325786      -0.01873682
Fe       2.73036900       4.62964873      11.85187531      -0.01889374        1       0.02780249      -0.00110888       0.00176304
Fe       5.59939911       4.49838574      11.81666731       0.00968470        1       0.00584893       0.00713442       0.00167077
Fe       7.33364046       2.67069835      11.94586921       0.01797196        1      -0.01366721       0.01224654       0.01432717
N        5.70550913       2.34477305      12.71610729      -0.13561330        0       0.03699275      -0.01221928       0.01575549
H        4.85997212       3.36619407      13.14801812       0.18849906        0      -0.03038627      -0.00955667       0.01607890
