31
Lattice="8.493 0.0 0.0 4.2465 6.005457892617349 0.0 0.0 0.0 20.003638595078232" Properties=species:S:1:pos:R:3:tags:I:1:forces:R:3:charge:R:1 charge=0 spin=0 energy=-2456.7955096879627 free_energy=-2456.7955096879627 stress="0.027977075854636123 -0.0014319746437051013 -0.0006442223053053238 -0.0014319746437051013 0.0026074423375623385 -0.002110243944691625 -0.0006442223053053238 -0.002110243944691625 0.008301546084846755" dipole="-0.837680599901265 1.188004865357933 0.8031817188663244" pbc="T T T"
Fe       0.00000000       0.00000000       8.00000000        3       0.01874260      -0.04557039      -0.03776276      -0.00151452
Fe       2.83100000       0.00000000       8.00000000        3       0.02457432      -0.08966690      -0.11457172      -0.00260458
Fe       5.66200000       0.00000000       8.00000000        3      -0.00536996      -0.06713766      -0.02374145      -0.00276955
Fe       1.41550000       2.00181930       8.00000000        3      -0.04337255      -0.05147323       0.05610792      -0.00201876
Fe       4.24650000       2.00181930       8.00000000        3      -0.02269653      -0.05557854      -0.12500656      -0.00310003
Fe       7.07750000       2.00181930       8.00000000        3      -0.02658504      -0.09098601      -0.02258352      -0.00159477
Fe       2.83100000       4.00363860       8.00000000        3      -0.05574026      -0.04839493       0.01340527      -0.00298929
Fe       5.66200000       4.00363860       8.00000000        3       0.01297907      -0.04922245      -0.00852749      -0.00237887
Fe       8.49300000       4.00363860       8.00000000        3      -0.02752135      -0.07295281      -0.07314864      -0.00217768
Fe       0.00000000       2.00181930      10.00181930        2      -0.03773263      -0.28919628       0.04421521       0.00023048
Fe       2.83100000       2.00181930      10.00181930        2       0.11066910       0.32075042      -0.07037373       0.00389912
Fe       5.66200000       2.00181930      10.00181930        2       0.01217774       0.05632628      -0.24266383       0.00332865
Fe       1.41550000       4.00363860      10.00181930        2      -0.35189309      -0.19631863       0.26260932       0.00275785
Fe       4.24650000       4.00363860      10.00181930        2      -0.06548675       0.26972984      -0.05321942       0.00156911
Fe       7.07750000       4.00363860      10.00181930        2       0.23041406      -0.27018079       0.16400286       0.00170991
Fe       2.83100000       6.00545789      10.00181930        2      -0.21590724       0.07359415      -0.20633864       0.00036934
Fe       5.66200000       6.00545789      10.00181930        2       0.22604560       0.06678950      -0.13949289       0.00149115
Fe       8.49300000       6.00545789      10.00181930        2       0.04644920       0.10529408       0.12238054       0.00526520
Fe       0.03741592      -0.48914617      11.79287658        1       0.03962537       0.23559053       1.56243799       0.02609716
Fe       2.92453378      -0.61396560      11.85604292        1       0.30667164       0.12692432      -0.04175032       0.01152440
Fe       5.54632602      -0.61842095      11.85327239        1      -0.27153064      -0.31268378      -0.25766919       0.00744404
Fe       1.66696818       1.38343146      11.84399285        1       0.00105832       0.03991199       0.50400780       0.02307860
Fe       4.21157470       1.43718857      11.85463923        1      -0.15797536      -0.01299129      -0.15878595       0.00419690
Fe       6.79451448       1.34196791      11.96079996        1       0.19417143       0.78976787       2.87788980       0.02061929
Fe       2.82388211       3.48373599      11.82196881        1      -0.20346334      -0.07520466       0.09126212       0.01250712
Fe       5.58356007       3.48685678      11.80524310        1       0.12777092      -0.05220750       0.26724690       0.02805325
Fe       8.44862271       3.30647500      11.95141457        1      -0.07787575       0.03919008       0.02326271       0.01289113
N        7.09444682       1.97591036      13.59153958        0      -0.16015066       0.21690011       0.60173605      -0.22126101
H        7.83176691       0.94881096      14.05851376        0       0.00232822      -0.01007128      -0.00500383       0.34533475
H        6.85253376       2.31370816      14.53292425        0       0.15091611      -0.20982475      -0.58987940       0.27793090
O       -0.01591652       0.02421553      14.40148487        0       0.01260325      -0.00236421       0.01311159      -0.54788930
