30
Lattice="8.493 0.0 0.0 4.2465 6.005457892617349 0.0 0.0 0.0 20.003638595078232" Properties=species:S:1:pos:R:3:tags:I:1:forces:R:3 charge=0 spin=0 energy=-196.3933335115196 free_energy=-196.3933335115196 stress="0.04340184107422829 -0.00020069994207005948 3.851266228593886e-06 -0.00020069994207005948 0.029234010726213455 5.986399628454819e-05 3.851266228593886e-06 5.986399628454819e-05 0.008597144857048988" pbc="T T T"
Fe       0.00000000       0.00000000       8.00000000        3       0.06629157      -0.03393269       0.59921736
Fe       2.83100000       0.00000000       8.00000000        3      -0.05868351      -0.01137179       0.54147959
Fe       5.66200000       0.00000000       8.00000000        3       0.00606894       0.05673223       0.28109562
Fe       1.41550000       2.00181930       8.00000000        3      -0.00026896      -0.00159399       0.67255569
Fe       4.24650000       2.00181930       8.00000000        3       0.06525996      -0.00374519       0.50864512
Fe       7.07750000       2.00181930       8.00000000        3      -0.06317053       0.00084068       0.50947559
Fe       2.83100000       4.00363860       8.00000000        3      -0.07397277       0.03438455       0.59240299
Fe       5.66200000       4.00363860       8.00000000        3      -0.00528771      -0.05503408       0.28958017
Fe       8.49300000       4.00363860       8.00000000        3       0.06767415       0.00780020       0.53789753
Fe       0.00000000       2.00181930      10.00181930        2      -0.85044742      -0.02157892      -0.27981785
Fe       2.83100000       2.00181930      10.00181930        2       0.84782678      -0.00740667      -0.28318161
Fe       5.66200000       2.00181930      10.00181930        2      -0.00244821       0.04201286       0.03013997
Fe       1.41550000       4.00363860      10.00181930        2      -0.04331860      -0.11802207       0.26878324
Fe       4.24650000       4.00363860      10.00181930        2       0.26472470       0.03324088      -1.18817568
Fe       7.07750000       4.00363860      10.00181930        2      -0.25109881       0.02508710      -1.17258155
Fe       2.83100000       6.00545789      10.00181930        2      -0.33639920       0.00476510      -1.13196743
Fe       5.66200000       6.00545789      10.00181930        2       0.04067546       0.07416844       0.25042772
Fe       8.49300000       6.00545789      10.00181930        2       0.32454291       0.01856938      -1.12366891
Fe      -0.26518266       0.20945978      11.83722203        1      -0.03152467       0.01347828       0.01008227
Fe       3.10512793       0.18549752      11.83541618        1       0.03675192      -0.01075715       0.01776384
Fe       5.66127124      -0.56860039      11.83522456        1       0.00580870       0.03518869      -0.01090916
Fe       1.41585411       2.01518229      11.75852330        1       0.00127664      -0.00983321       0.00380932
Fe       4.47368163       1.98069598      12.10686849        1       0.00077682       0.00164069      -0.00349286
Fe       6.85044192       1.98487394      12.10678346        1      -0.00231543      -0.01190687      -0.00053858
Fe       3.11615338       3.77708131      11.83899590        1       0.02082175      -0.02416905       0.00935424
Fe       5.66167640       4.54490648      11.82915865        1      -0.00607995      -0.03798681      -0.00342244
Fe       8.20150754       3.79684420      11.83610770        1      -0.02385925      -0.00628971       0.01813258
N        5.66224506       1.97722736      13.63276288        0       0.00040956       0.00271432       0.02149273
H        5.65777853       2.80524728      14.24106844        0      -0.00058770       0.00867572       0.01433253
H        5.66693366       1.14377058      14.23361404        0       0.00055319      -0.00567115       0.02108834
