29
Lattice="8.493 0.0 0.0 4.2465 6.005457892617349 0.0 0.0 0.0 20.003638595078232" Properties=species:S:1:pos:R:3:initial_charges:R:1:tags:I:1:forces:R:3 charge=0 spin=0 energy=-191.7286277215095 free_energy=-191.7286277215095 stress="0.054060857743024826 -0.0002983598387800157 -0.00018932984676212072 -0.0002983598387800157 0.018028754740953445 -0.002006343100219965 -0.00018932984676212072 -0.002006343100219965 0.00893864594399929" dipole="0.11794374106893214 0.40899443998565427 0.8030994919827064" pbc="T T T"
Fe       0.00000000       0.00000000       8.00000000      -0.00356120        3       0.04402143      -0.10021872       0.54761708
Fe       2.83100000       0.00000000       8.00000000      -0.00454243        3      -0.03105970      -0.09605336       0.54608041
Fe       5.66200000       0.00000000       8.00000000      -0.00415237        3      -0.01095668      -0.13670719       0.41928032
Fe       1.41550000       2.00181930       8.00000000      -0.00418954        3       0.00314399      -0.12028445       0.49980614
Fe       4.24650000       2.00181930       8.00000000      -0.00494048        3      -0.01789908      -0.10577799       0.61469674
Fe       7.07750000       2.00181930       8.00000000      -0.00465140        3      -0.02176264      -0.13539509       0.53033292
Fe       2.83100000       4.00363860       8.00000000      -0.00413824        3       0.02723641      -0.10918795       0.41081578
Fe       5.66200000       4.00363860       8.00000000      -0.00444666        3      -0.03769827      -0.04191564       0.58099347
Fe       8.49300000       4.00363860       8.00000000      -0.00458185        3      -0.02082796      -0.12092364       0.39414629
Fe       0.00000000       2.00181930      10.00181930       0.00194484        2      -0.04390157       0.07744303      -0.49587095
Fe       2.83100000       2.00181930      10.00181930       0.00069123        2      -0.03872399      -0.05897230      -0.40825942
Fe       5.66200000       2.00181930      10.00181930       0.00996146        2       0.02218518       0.18149938      -0.77349627
Fe       1.41550000       4.00363860      10.00181930       0.00456706        2       0.07210449       0.25331682      -0.73035157
Fe       4.24650000       4.00363860      10.00181930       0.00205189        2      -0.39197788      -0.07516553      -0.52083522
Fe       7.07750000       4.00363860      10.00181930       0.00524411        2       0.32929817       0.07641487      -0.47580224
Fe       2.83100000       6.00545789      10.00181930       0.00276509        2       0.15207230       0.36553669      -0.39956087
Fe       5.66200000       6.00545789      10.00181930       0.00136965        2      -0.06999996      -0.31010851      -0.33737338
Fe       8.49300000       6.00545789      10.00181930       0.00494986        2      -0.00220870       0.44554585      -0.41145068
Fe      -0.26667331      -0.65633294      11.87875092      -0.00547950        1       0.01434588       0.00280679       0.00142417
Fe       3.03560382      -0.58127743      11.86071286      -0.00257646        1       0.00025772      -0.00836002      -0.00609780
Fe       5.67520320      -0.59056875      11.82644680       0.00488546        1       0.02282191       0.00443173       0.00145591
Fe       1.25488661       1.30788557      11.86565303      -0.00993504        1       0.01659352       0.00656294      -0.00503601
Fe       4.21392403       1.45161344      11.89957852       0.05848096        1       0.01072603      -0.00058600      -0.00007353
Fe       7.15677537       1.42510049      11.92135902       0.03642049        1      -0.01459417       0.00948545       0.01104825
Fe       2.62209190       3.35026507      11.86337975      -0.00048682        1       0.01397172      -0.00249020       0.00006154
Fe       5.67949262       3.63289170      11.82358268      -0.01380518        1      -0.00450906      -0.02357244       0.03730029
Fe       8.64098482       3.42525596      11.84388281       0.00425926        1      -0.02212659      -0.00326138       0.00241397
O        5.68783809       2.11722055      12.99476779      -0.37844976        0       0.01480166      -0.01377019      -0.02676830
H        5.74799128       3.38843738      13.40656267       0.31234555        0      -0.01533410       0.03970693      -0.00649693
