28
Lattice="8.493 0.0 0.0 4.2465 6.005457892617349 0.0 0.0 0.0 20.003638595078232" Properties=species:S:1:pos:R:3:tags:I:1:forces:R:3 charge=0 spin=0 energy=-187.79955843558525 free_energy=-187.79955843558525 stress="0.04429929330945015 -0.00012856618559453636 -4.372403782326728e-05 -0.00012856618559453636 0.029447853565216064 -0.003728342242538929 -4.372403782326728e-05 -0.003728342242538929 0.010097929276525974" pbc="T T T"
Fe       0.00000000       0.00000000       8.00000000        3      -0.04772975       0.07974494       0.55171871
Fe       2.83100000       0.00000000       8.00000000        3      -0.00074032       0.02908033       0.42450535
Fe       5.66200000       0.00000000       8.00000000        3       0.01855784       0.07845788       0.49273250
Fe       1.41550000       2.00181930       8.00000000        3      -0.03102072       0.06319024       0.59147745
Fe       4.24650000       2.00181930       8.00000000        3       0.03298344       0.04644707       0.54025388
Fe       7.07750000       2.00181930       8.00000000        3       0.01207014       0.06562322       0.44094145
Fe       2.83100000       4.00363860       8.00000000        3      -0.00017494       0.07800047       0.76131022
Fe       5.66200000       4.00363860       8.00000000        3      -0.01859384       0.07569398       0.50876808
Fe       8.49300000       4.00363860       8.00000000        3       0.01283778       0.06961380       0.49619848
Fe       0.00000000       2.00181930      10.00181930        2      -0.30896068      -0.31651849      -0.53313887
Fe       2.83100000       2.00181930      10.00181930        2       0.01136785      -0.57994008      -0.33191308
Fe       5.66200000       2.00181930      10.00181930        2       0.29780674      -0.29375663      -0.48872826
Fe       1.41550000       4.00363860      10.00181930        2      -0.49772704      -0.34007502       0.01033417
Fe       4.24650000       4.00363860      10.00181930        2       0.47130302      -0.35899240       0.01171532
Fe       7.07750000       4.00363860      10.00181930        2       0.02686563      -0.25091892      -0.94851071
Fe       2.83100000       6.00545789      10.00181930        2      -0.01186191      -0.22448586      -0.31491780
Fe       5.66200000       6.00545789      10.00181930        2       0.23337901      -0.42348221      -0.99575162
Fe       8.49300000       6.00545789      10.00181930        2      -0.19576526      -0.46501389      -0.96941489
Fe       0.09153687      -0.04659533      11.82722720        1       0.23989588       0.19334410       0.01132881
Fe       2.82157548       0.32897774      11.82364460        1      -0.00898164       0.46120203       0.00717309
Fe       5.56561181      -0.03705858      11.82828344        1      -0.25344273       0.22265123      -0.00156539
Fe       1.37773978       2.20040435      11.81169500        1      -0.10318302       0.43798983      -0.04089811
Fe       4.27492628       2.19401104      11.81743802        1       0.09639233       0.43701121      -0.03571055
Fe       7.07651925       1.83573406      11.95611510        1      -0.00372258       0.09049700       0.04193611
Fe       2.83339113       4.12129516      11.84414245        1       0.00387479       0.45779288      -0.08636698
Fe       5.88501172       4.13115716      11.98276867        1       0.11477382       0.15188241       0.01733038
Fe       8.28325958       4.12921218      11.99247113        1      -0.09582185       0.15844232       0.02147297
O        7.07508043       3.25296961      13.12900700        0       0.00561798       0.05651831      -0.18228108
