29
Lattice="8.493 0.0 0.0 4.2465 6.005457892617349 0.0 0.0 0.0 20.003638595078232" Properties=species:S:1:pos:R:3:tags:I:1:forces:R:3:charge:R:1 charge=0 spin=0 energy=-2306.2125274775244 free_energy=-2306.2125274775244 stress="0.025951547889016307 -0.0001817938588058917 0.0032044269626046885 -0.0001817938588058917 0.0019099741756981173 0.0019131651384603748 0.0032044269626046885 0.0019131651384603748 -0.0067814441675113635" dipole="-0.2303506334869616 -0.12198099018776173 0.7714605601983795" pbc="T T T"
Fe       0.00000000       0.00000000       8.00000000        3       0.01823085       0.06861621      -0.06426761      -0.00266581
Fe       2.83100000       0.00000000       8.00000000        3       0.02310714       0.07181699      -0.07288294      -0.00318109
Fe       5.66200000       0.00000000       8.00000000        3      -0.01029832       0.11263599      -0.11519064      -0.00325093
Fe       1.41550000       2.00181930       8.00000000        3      -0.01652275       0.07309891      -0.12626005      -0.00315026
Fe       4.24650000       2.00181930       8.00000000        3      -0.00368093       0.05939853      -0.11728310      -0.00307685
Fe       7.07750000       2.00181930       8.00000000        3      -0.00475095       0.01581568      -0.02239438      -0.00341417
Fe       2.83100000       4.00363860       8.00000000        3      -0.01812715       0.12079641      -0.12463597      -0.00319295
Fe       5.66200000       4.00363860       8.00000000        3      -0.04437679      -0.01355686      -0.05923800      -0.00258835
Fe       8.49300000       4.00363860       8.00000000        3       0.01732945       0.00197562      -0.02381646      -0.00327594
Fe       0.00000000       2.00181930      10.00181930        2       0.03795986      -0.01457866       0.31054073       0.00177143
Fe       2.83100000       2.00181930      10.00181930        2       0.09586186      -0.08121987      -0.17250316       0.00343306
Fe       5.66200000       2.00181930      10.00181930        2      -0.07490213       0.28817633       0.04504004       0.00334528
Fe       1.41550000       4.00363860      10.00181930        2       0.17780538       0.12736414       0.01429430       0.00177985
Fe       4.24650000       4.00363860      10.00181930        2      -0.05291583       0.18865897      -0.40507960       0.00102091
Fe       7.07750000       4.00363860      10.00181930        2       0.06246519      -0.13881254      -0.41561200       0.01359520
Fe       2.83100000       6.00545789      10.00181930        2      -0.07830074       0.14349658      -0.04658931       0.00244105
Fe       5.66200000       6.00545789      10.00181930        2      -0.10671840      -0.43856614      -0.36775659       0.00288213
Fe       8.49300000       6.00545789      10.00181930        2      -0.00813209      -0.38037944      -0.09133551       0.00363946
Fe       0.12726763       0.56517577      11.84049183        1      -0.32589245       0.45378373      -0.26186631       0.00209971
Fe       2.84603649       0.57870060      11.81307720        1       0.27807448      -0.07848511       0.27662088       0.02713527
Fe       5.44068274       0.67079957      11.88013672        1      -0.09375601      -0.19470913       0.04331109       0.00620489
Fe       1.51521491       2.57650792      11.83905801        1       0.11611063      -0.05626403       0.24774919       0.00159480
Fe       4.05513961       2.63868269      11.86595073        1      -0.22382939      -0.20419635       0.09195596       0.00629125
Fe       7.08804888       2.40112033      11.85954878        1      -0.26780286       1.00658353       0.96398690       0.04980794
Fe       2.68660770       4.69551046      11.88982110        1      -0.14419685      -0.07062942      -0.16810768      -0.00701790
Fe       5.56870126       4.57582606      11.89265766        1       4.33669107      -0.53981610      -2.26711725       0.02302016
Fe       8.63823459       4.57932554      11.90274250        1      -0.45753990      -0.08818454       0.67156870       0.04389228
O        6.67120393       4.09743856      13.06361636        0       0.00086286      -0.00022024      -0.00041878      -0.33128583
H        4.85399396       4.52145278      12.94469233        0      -0.00108538       0.00417187       0.00039739       0.17214540
