29
Lattice="8.493 0.0 0.0 4.2465 6.005457892617349 0.0 0.0 0.0 20.003638595078232" Properties=species:S:1:pos:R:3:initial_charges:R:1:tags:I:1:forces:R:3 charge=0 spin=0 energy=-191.87103609248118 free_energy=-191.87103609248118 stress="0.05397476628422737 -0.0005397757631726563 -5.63082612643484e-05 -0.0005397757631726563 0.01744873635470867 -0.0021433813963085413 -5.63082612643484e-05 -0.0021433813963085413 0.008976674638688564" dipole="-0.11472670496629017 0.010834472930308437 0.8655044137798845" pbc="T T T"
Fe       0.00000000       0.00000000       8.00000000      -0.00365158        3       0.01346362      -0.11327846       0.52213502
Fe       2.83100000       0.00000000       8.00000000      -0.00396138        3      -0.00697750      -0.10046163       0.53796905
Fe       5.66200000       0.00000000       8.00000000      -0.00379525        3      -0.00553687      -0.14766121       0.43716779
Fe       1.41550000       2.00181930       8.00000000      -0.00404884        3       0.00168002      -0.13246992       0.45410132
Fe       4.24650000       2.00181930       8.00000000      -0.00453891        3       0.00173060      -0.09389318       0.66358274
Fe       7.07750000       2.00181930       8.00000000      -0.00415246        3      -0.01387907      -0.13269183       0.55413830
Fe       2.83100000       4.00363860       8.00000000      -0.00361901        3       0.05066284      -0.11631666       0.43303236
Fe       5.66200000       4.00363860       8.00000000      -0.00442104        3      -0.03528257      -0.04516959       0.55224442
Fe       8.49300000       4.00363860       8.00000000      -0.00441848        3      -0.02830371      -0.13099132       0.39716709
Fe       0.00000000       2.00181930      10.00181930       0.00220314        2      -0.05136793       0.15658060      -0.51586336
Fe       2.83100000       2.00181930      10.00181930      -0.00033151        2      -0.16156562       0.01397738      -0.50629222
Fe       5.66200000       2.00181930      10.00181930       0.01084080        2       0.09004571       0.16878363      -0.60187596
Fe       1.41550000       4.00363860      10.00181930       0.00445431        2       0.06634784       0.23894931      -0.87342787
Fe       4.24650000       4.00363860      10.00181930       0.00304723        2      -0.18481688      -0.18751487      -0.41451764
Fe       7.07750000       4.00363860      10.00181930       0.00598797        2       0.14300233       0.03758474      -0.40897101
Fe       2.83100000       6.00545789      10.00181930       0.00239979        2       0.14712404       0.36415756      -0.38053364
Fe       5.66200000       6.00545789      10.00181930       0.00098236        2      -0.09684051      -0.22014870      -0.38629338
Fe       8.49300000       6.00545789      10.00181930       0.00349974        2       0.06140522       0.39729798      -0.43019724
Fe      -0.19570121      -0.66516513      11.86060206       0.00783784        1       0.01102150       0.00354323      -0.00085899
Fe       2.96945752      -0.57939617      11.83191225      -0.01098445        1       0.00507536       0.00440723       0.00575586
Fe       5.67917074      -0.54540936      11.84065578       0.00307093        1      -0.00115746       0.00359091      -0.01548314
Fe       1.29009020       1.32189242      11.86993650      -0.00726768        1       0.00981869       0.00344386      -0.00765802
Fe       4.17351982       1.45187677      11.87331452       0.00921667        1      -0.02448219      -0.00540659      -0.01664032
Fe       7.25231670       1.40557226      11.93120938       0.03572352        1       0.00638200      -0.00002724      -0.00541043
Fe       2.63917344       3.37980019      11.85066343      -0.00797340        1      -0.00156896       0.00760556      -0.00516112
Fe       5.69737086       3.56117220      11.86733318       0.04770157        1       0.00209715      -0.00039548      -0.00075332
Fe       8.62933119       3.44720198      11.83850708       0.00891090        1       0.00612227      -0.00016985      -0.00034769
O        5.78842456       2.14005057      13.06963250      -0.37394423        0       0.00866490       0.03185488       0.01018746
H        5.47169414       0.96265346      13.01762506       0.29123146        0      -0.01286520      -0.00518039       0.00280395
