41
Lattice="7.708127040155146 0.0 0.0 3.854063520077573 6.675433832372109 0.0 0.0 0.0 22.29365937364323" Properties=species:S:1:pos:R:3:tags:I:1:forces:R:3:charge:R:1 energy=-4518.769904532051 free_energy=-4518.769904532051 stress="-0.014077841989777679 0.0017711914559979153 -0.0005791221025908676 0.0017711914559979153 -0.01675728585881687 -0.0015822306918677465 -0.0005791221025908676 -0.0015822306918677465 -0.0181977838684195" dipole="1.0714243911327832 0.6060982643911651 2.123154663145574" pbc="T T F"
Cu       0.00000000       0.00000000       8.00000000        4      -0.05950866      -0.00725749      -0.32680359      -0.00518446
Cu       2.56937568      -0.00000000       8.00000000        4      -0.01344432      -0.02205055      -0.31359249      -0.01336368
Cu       5.13875136       0.00000000       8.00000000        4       0.06348418       0.00357071      -0.32059167      -0.01246030
Cu       1.28468784       2.22514461       8.00000000        4      -0.05103237       0.01754309      -0.32331545       0.01124868
Cu       3.85406352       2.22514461       8.00000000        4       0.06381705      -0.03333284      -0.26862389       0.01420592
Cu       6.42343920       2.22514461       8.00000000        4      -0.02094674      -0.01816462      -0.34917292      -0.03066860
Cu       2.56937568       4.45028922       8.00000000        4      -0.05153901       0.06826696      -0.28067456      -0.00233214
Cu       5.13875136       4.45028922       8.00000000        4       0.03169103      -0.00536458      -0.28136391      -0.02493547
Cu       7.70812704       4.45028922       8.00000000        4       0.01022299      -0.03036400      -0.29313233      -0.00157499
Cu       1.28468784       0.74171487      10.09788646        3       0.02553441      -0.02092536       0.00653312      -0.02298326
Cu       3.85406352       0.74171487      10.09788646        3      -0.02506391       0.02474957      -0.01815935      -0.00340726
Cu       6.42343920       0.74171487      10.09788646        3       0.02274779       0.01990658      -0.01122040      -0.00554815
Cu       2.56937568       2.96685948      10.09788646        3      -0.02010698      -0.03541569      -0.01887078      -0.01765000
Cu       5.13875136       2.96685948      10.09788646        3       0.04411581      -0.02870057      -0.12550916       0.03008898
Cu       7.70812704       2.96685948      10.09788646        3       0.00040168      -0.02076936      -0.05083524      -0.01051757
Cu       3.85406352       5.19200409      10.09788646        3       0.03437053       0.07463161      -0.05528925       0.02465357
Cu       6.42343920       5.19200409      10.09788646        3      -0.03504306       0.04942644      -0.09570178       0.03413486
Cu       8.99281488       5.19200409      10.09788646        3       0.02716618       0.01413628      -0.03220738      -0.00136059
Cu      -0.00001456       1.48341895      12.22216237        2      -0.05289618      -0.02624417       0.03114471       0.02172993
Cu       2.56938632       1.48343972      12.22228812        2      -0.00099136      -0.01333438       0.06074213       0.03468437
Cu       5.13868200       1.48341490      12.22229490        2       0.01457033      -0.02918904       0.01937622      -0.00911593
Cu       1.28472730       3.70860469      12.22229670        2       0.01109236       0.01054043       0.04386727       0.03156381
Cu       3.85404919       3.70853617      12.22226661        2      -0.01702486      -0.01125451       0.07025831      -0.02876943
Cu       6.42343137       3.70855859      12.22219237        2      -0.00642819      -0.05145829      -0.04381988      -0.03254552
Cu       2.56933175       5.93372331      12.22226822        2      -0.02320065       0.00607242       0.00780275      -0.01035062
Cu       5.13873976       5.93371007      12.22221793        2      -0.03105299       0.03116080       0.07104238      -0.04223368
Cu       7.70811165       5.93376676      12.22227910        2       0.04090288       0.02346835       0.04037261      -0.02131012
Cu       0.00003176       0.00005032      14.34901118        1      -0.12183871       0.10921318       0.29591615      -0.05764936
Cu       2.56930125       0.00001804      14.34916312        1       0.07465380       0.26487222       0.24069769      -0.01837147
Cu       5.13864853       0.00002580      14.34922433        1       0.11244615      -0.06050657       0.35538171      -0.05038903
Cu       1.28470809       2.22517124      14.34907163        1       0.14802367      -0.05581495       0.35426558      -0.05923184
Cu       3.85409307       2.22518508      14.34928516        1      -0.32327178      -0.30853360       0.20829166      -0.08964626
Cu       6.42349021       2.22507450      14.34904494        1       0.07861560      -0.06966909       0.38167121      -0.06355104
Cu       2.56959011       4.45037276      14.34913478        1      -0.23356119       0.03643933       0.35991918      -0.10142665
Cu       5.13896751       4.45026038      14.34907842        1      -0.83451878       0.11751910      -2.17858631       0.37182562
Cu       7.70816084       4.45028686      14.34912297        1       0.47605794       0.06873538       0.03728444      -0.01433469
O        5.57245489       4.68965560      16.01168098        0     -62.26190983     180.24637799     -32.55467521      -0.46881423
C        6.02881264       3.36850547      16.25030646        0      62.32562380    -180.13099452      32.42184219       0.09487411
H        5.28757120       2.75253461      16.76369582        0      -0.13775711      -0.11382196       0.09709032       0.05530037
H        6.99261666       3.36281827      16.76195704        0       0.07561206       0.00047793       0.03983930       0.06818634
H        5.54747724       4.27308975      17.06980020        0       0.00028749      -0.00102011      -0.00269718       0.42722977
