29
Lattice="8.493 0.0 0.0 4.2465 6.005457892617349 0.0 0.0 0.0 20.003638595078232" Properties=species:S:1:pos:R:3:initial_charges:R:1:tags:I:1:forces:R:3 charge=0 spin=0 energy=-191.8655963341804 free_energy=-191.8655963341804 stress="0.053424715995788574 0.00024492337252013385 -0.00030932860681787133 0.00024492337252013385 0.01773904077708721 0.0018227749969810247 -0.00030932860681787133 0.0018227749969810247 0.008828343823552132" dipole="-0.407827115876288 -0.01652092420592339 0.9406366322025178" pbc="T T T"
Fe       0.00000000       0.00000000       8.00000000      -0.00409511        3      -0.02557162       0.08804461       0.56498373
Fe       2.83100000       0.00000000       8.00000000      -0.00420250        3       0.00354295       0.14812063       0.43197408
Fe       5.66200000       0.00000000       8.00000000      -0.00425018        3      -0.01380902       0.12496465       0.50823146
Fe       1.41550000       2.00181930       8.00000000      -0.00442774        3      -0.03782751       0.13305166       0.38484284
Fe       4.24650000       2.00181930       8.00000000      -0.00437291        3       0.03638363       0.12419171       0.43607369
Fe       7.07750000       2.00181930       8.00000000      -0.00473340        3      -0.00453315       0.04495477       0.55469197
Fe       2.83100000       4.00363860       8.00000000      -0.00456612        3      -0.01057094       0.13895430       0.45889691
Fe       5.66200000       4.00363860       8.00000000      -0.00436664        3      -0.00268032       0.09748869       0.65879840
Fe       8.49300000       4.00363860       8.00000000      -0.00419959        3      -0.02245587       0.12123125       0.54033428
Fe       0.00000000       2.00181930      10.00181930       0.00338949        2       0.14639615      -0.07399224      -0.44582468
Fe       2.83100000       2.00181930      10.00181930       0.00526813        2       0.04822948      -0.25406402      -0.85798842
Fe       5.66200000       2.00181930      10.00181930       0.00214761        2      -0.17022572       0.17640878      -0.38322812
Fe       1.41550000       4.00363860      10.00181930       0.00152612        2      -0.02332238      -0.17669342      -0.52734941
Fe       4.24650000       4.00363860      10.00181930       0.00090851        2      -0.16186008       0.00246708      -0.50586462
Fe       7.07750000       4.00363860      10.00181930       0.01399630        2       0.11011927      -0.22447325      -0.62052000
Fe       2.83100000       6.00545789      10.00181930       0.00437525        2      -0.08175151       0.20903523      -0.39844003
Fe       5.66200000       6.00545789      10.00181930       0.00244103        2       0.02438305      -0.40529922      -0.48515418
Fe       8.49300000       6.00545789      10.00181930       0.00382549        2       0.11152620      -0.38312405      -0.35987675
Fe       0.12739680       0.55639659      11.82532637      -0.00372741        1       0.01063411       0.01592413       0.00414142
Fe       2.82974195       0.54546131      11.83647240       0.01757334        1       0.01225340      -0.01278985       0.01494154
Fe       5.43708100       0.68053606      11.86993576      -0.00259409        1      -0.00847291      -0.02045484      -0.00196267
Fe       1.52613766       2.56064548      11.83815028       0.00268743        1       0.01906338       0.01192598      -0.00287135
Fe       4.01558243       2.62764069      11.85693315      -0.01374416        1       0.02109847       0.01764897      -0.00045852
Fe       7.11409217       2.41863325      11.86622779       0.04340001        1       0.00052217       0.02892953       0.02239249
Fe       2.68196151       4.68715513      11.87286475      -0.01231233        1      -0.01659067       0.00638870      -0.00192718
Fe       5.60127280       4.53700660      11.86409046      -0.00819059        1      -0.00513737       0.01416198       0.04572591
Fe       8.64121022       4.58846591      11.92446945       0.04966901        1       0.02116676       0.02344981      -0.03267290
O        7.19427846       3.83089384      13.07967163      -0.38955073        0       0.00782645      -0.00851681      -0.01931695
H        6.89914470       5.01212502      13.00943764       0.31812581        0       0.01166354       0.03206535       0.01742582
