29
Lattice="8.493 0.0 0.0 4.2465 6.005457892617349 0.0 0.0 0.0 20.003638595078232" Properties=species:S:1:pos:R:3:tags:I:1:forces:R:3:charge:R:1 charge=0 spin=0 energy=-2358.2075964608084 free_energy=-2358.2075964608084 stress="0.03252590362945753 0.0001753772219473436 -0.00026275702604040786 0.0001753772219473436 0.002498978916817216 0.002096145321937045 -0.00026275702604040786 0.002096145321937045 -0.0021731170607235534" dipole="-0.407827115876288 -0.01652092420592339 0.9406366322025178" pbc="T T T"
Fe       0.00000000       0.00000000       8.00000000        3      -0.00191140       0.07283341      -0.09199779      -0.00409511
Fe       2.83100000       0.00000000       8.00000000        3       0.00153793       0.07253096      -0.08497255      -0.00420250
Fe       5.66200000       0.00000000       8.00000000        3      -0.00591649       0.12179005      -0.10906210      -0.00425018
Fe       1.41550000       2.00181930       8.00000000        3      -0.01243361       0.06953796      -0.10807836      -0.00442774
Fe       4.24650000       2.00181930       8.00000000        3       0.02931957       0.06730460      -0.11736745      -0.00437291
Fe       7.07750000       2.00181930       8.00000000        3      -0.01871566       0.00058133      -0.06312268      -0.00473340
Fe       2.83100000       4.00363860       8.00000000        3      -0.02953411       0.15101471      -0.17708596      -0.00456612
Fe       5.66200000       4.00363860       8.00000000        3      -0.04598493      -0.01433733      -0.01309319      -0.00436664
Fe       8.49300000       4.00363860       8.00000000        3       0.02752364       0.01261430      -0.09547524      -0.00419959
Fe       0.00000000       2.00181930      10.00181930        2       0.06029128       0.02114330       0.15246524       0.00338949
Fe       2.83100000       2.00181930      10.00181930        2       0.07392349      -0.03905789      -0.18658799       0.00526813
Fe       5.66200000       2.00181930      10.00181930        2      -0.09154840       0.28017981       0.02658254       0.00214761
Fe       1.41550000       4.00363860      10.00181930        2       0.12139680       0.07352278      -0.11419683       0.00152612
Fe       4.24650000       4.00363860      10.00181930        2      -0.01957381       0.27696642      -0.15846337       0.00090851
Fe       7.07750000       4.00363860      10.00181930        2      -0.00390103      -0.18722504      -0.18653956       0.01399630
Fe       2.83100000       6.00545789      10.00181930        2      -0.04542280       0.10010462       0.01877987       0.00437525
Fe       5.66200000       6.00545789      10.00181930        2      -0.01356702      -0.34720694      -0.24782852       0.00244103
Fe       8.49300000       6.00545789      10.00181930        2       0.07229601      -0.39400772      -0.09870156       0.00382549
Fe       0.12726763       0.56517577      11.84049183        1      -0.05889264       0.15471183      -0.09004429      -0.00372741
Fe       2.84603649       0.57870060      11.81307720        1       0.15610300      -0.15095163       0.28456829       0.01757334
Fe       5.44068274       0.67079957      11.88013672        1      -0.06611832      -0.17626004      -0.08443138      -0.00259409
Fe       1.51521491       2.57650792      11.83905801        1       0.10008900      -0.16325565       0.20388202       0.00268743
Fe       4.05513961       2.63868269      11.86595073        1      -0.02359554      -0.15506819       0.25134412      -0.01374416
Fe       7.08804888       2.40112033      11.85954878        1       0.04196449       1.11691676       1.00543007       0.04340001
Fe       2.68660770       4.69551046      11.88982110        1      -0.12814218       0.02636712      -0.14295256      -0.01231233
Fe       5.56870126       4.57582606      11.89265766        1       0.64412478      -0.53443010       1.14599214      -0.00819059
Fe       8.63823459       4.57932554      11.90274250        1      -0.71318146      -0.14410908       1.13064931       0.04966901
O        7.07707728       4.00128997      13.09328371        0       0.01218017       0.02443422       0.00632521      -0.38955073
H        5.68493123       4.08980052      13.35772894        0      -0.00890422       0.01610362      -0.00538548       0.31812581
