2
Lattice="21.140929554306066 0.0 0.0 0.0 20.0 0.0 0.0 0.0 20.0" Properties=species:S:1:pos:R:3:forces:R:3 charge=0 spin=1 energy=-4089.7794339640823 stress="9.763891029024307e-08 1.4306407158640447e-18 0.0 1.4306407158640447e-18 0.0 0.0 0.0 0.0 0.0" free_energy=-4089.7794339640823 pbc="T T T"
O       11.16872454      10.00000000      10.00000000      -0.00069006      -0.00000000       0.00000000
O        9.97220501      10.00000000      10.00000000       0.00069006       0.00000000       0.00000000
