30
Lattice="8.493 0.0 0.0 4.2465 6.005457892617349 0.0 0.0 0.0 20.003638595078232" Properties=species:S:1:pos:R:3:tags:I:1:forces:R:3 charge=0 spin=0 energy=-196.05542285935894 free_energy=-196.05542285935894 stress="0.04587335139513016 7.59277754696086e-05 -0.0001519856450613588 7.59277754696086e-05 0.029902491718530655 -0.004517011810094118 -0.0001519856450613588 -0.004517011810094118 0.011181366629898548" pbc="T T T"
Fe      -0.00000000      -0.00000000       8.00000000        3       0.00319477       0.08860915       0.55139124
Fe       2.83100000       0.00000000       8.00000000        3      -0.00596338       0.07054169       0.48043713
Fe       5.66200000       0.00000000       8.00000000        3      -0.01799373       0.08597966       0.47608075
Fe       1.41550000       2.00181930       8.00000000        3      -0.02935814       0.07810900       0.61714739
Fe       4.24650000       2.00181930       8.00000000        3       0.05173438       0.08453913       0.60019767
Fe       7.07750000       2.00181930       8.00000000        3       0.01010601       0.07537821       0.46227747
Fe       2.83100000       4.00363860       8.00000000        3      -0.02313515       0.10853659       0.69567043
Fe       5.66200000       4.00363860       8.00000000        3      -0.05414375       0.09988536       0.45868316
Fe       8.49300000       4.00363860       8.00000000        3       0.02422978       0.09694389       0.44988388
Fe       0.00000000       2.00181930      10.00181930        2      -0.39268246      -0.36324283      -0.41336587
Fe       2.83100000       2.00181930      10.00181930        2      -0.01667773      -0.58472902      -0.31344599
Fe       5.66200000       2.00181930      10.00181930        2       0.39015436      -0.42712444      -0.29553968
Fe       1.41550000       4.00363860      10.00181930        2      -0.48633349      -0.35105830       0.00126554
Fe       4.24650000       4.00363860      10.00181930        2       0.39319137      -0.40655965      -0.05937327
Fe       7.07750000       4.00363860      10.00181930        2       0.10645480      -0.46567675      -1.15152264
Fe       2.83100000       6.00545789      10.00181930        2       0.01139110      -0.28661898      -0.56541359
Fe       5.66200000       6.00545789      10.00181930        2       0.29490390      -0.59117746      -0.63720405
Fe       8.49300000       6.00545789      10.00181930        2      -0.25441372      -0.62293094      -0.71640778
Fe       0.03452772       0.01267226      11.84453697        1       0.16484620       0.26875669      -0.00128808
Fe       2.83261983       0.37368550      11.83511701        1       0.00537745       0.49355665       0.00089582
Fe       5.61748371       0.02887350      11.83680758        1      -0.19522877       0.28907642      -0.02266003
Fe       1.35037431       2.23926805      11.81470712        1      -0.10312667       0.45814720      -0.06072812
Fe       4.30492740       2.23591535      11.81921644        1       0.11928018       0.45732406      -0.05959405
Fe       7.11042509       1.87089934      12.02930164        1       0.00526432       0.13434982      -0.11556558
Fe       2.83545400       4.09776869      11.85756623        1      -0.01188265       0.40986529      -0.08877317
Fe       5.84154265       4.16837214      11.90691249        1       0.00260061       0.39956740       0.00301540
Fe       8.25176803       4.18772560      11.93104261        1      -0.06983729       0.34903330       0.01035019
N        7.12560328       3.21032622      13.42541247        0       0.14106749       0.07939006      -0.09312699
H        6.28258482       3.33620769      14.01587930        0      -0.03740494       0.03823407      -0.11154333
H        7.91983832       3.33072794      14.08232514        0      -0.02561505      -0.06670522      -0.10174392
