41
Lattice="7.708127040155146 0.0 0.0 3.854063520077573 6.675433832372109 0.0 0.0 0.0 22.29365937364323" Properties=species:S:1:pos:R:3:tags:I:1:forces:R:3:charge:R:1 energy=-4704.9938650821 free_energy=-4704.9938650821 stress="-0.013455770096620651 -0.00017744552575635434 -0.000747762526963935 -0.00017744552575635434 -0.013766275191991025 0.00036392087842617164 -0.000747762526963935 0.00036392087842617164 -0.016469787238588822" dipole="-0.06584931512599325 0.4999829309375132 1.3578056429119711" pbc="T T F"
Cu       0.00000000      -0.00000000       8.00000000        4       0.02572315      -0.01152793      -0.27340694       0.01226154
Cu       2.56937568      -0.00000000       8.00000000        4      -0.02356155       0.00852988      -0.30673528      -0.01828662
Cu       5.13875136       0.00000000       8.00000000        4      -0.00418926      -0.02708908      -0.33323440      -0.00091439
Cu       1.28468784       2.22514461       8.00000000        4       0.02259859      -0.01146348      -0.27358409       0.01150160
Cu       3.85406352       2.22514461       8.00000000        4       0.07056256       0.00823879      -0.28331262       0.00414609
Cu       6.42343920       2.22514461       8.00000000        4      -0.09413717       0.05409021      -0.32048146      -0.02096535
Cu       2.56937568       4.45028922       8.00000000        4      -0.05336421       0.02613339      -0.33067796      -0.01854015
Cu       5.13875136       4.45028922       8.00000000        4       0.03201565      -0.06223443      -0.28508780       0.00432802
Cu       7.70812704       4.45028922       8.00000000        4       0.02164905       0.01743404      -0.33452992      -0.00086746
Cu       1.28468784       0.74171487      10.09788646        3       0.05286411      -0.03197132      -0.04114951      -0.00076548
Cu       3.85406352       0.74171487      10.09788646        3      -0.00849550      -0.11883934      -0.04283066      -0.00451648
Cu       6.42343920       0.74171487      10.09788646        3      -0.04135391      -0.04879379      -0.02926107       0.00115162
Cu       2.56937568       2.96685948      10.09788646        3      -0.10252258       0.09074105      -0.05101703       0.00132521
Cu       5.13875136       2.96685948      10.09788646        3       0.07992936      -0.05092447      -0.13620342       0.01884452
Cu       7.70812704       2.96685948      10.09788646        3       0.02495961       0.05738409      -0.03074842       0.00140250
Cu       3.85406352       5.19200409      10.09788646        3      -0.12946958       0.04403187      -0.04705088       0.00113583
Cu       6.42343920       5.19200409      10.09788646        3       0.09761129       0.07176536      -0.04316137      -0.00513060
Cu       8.99281488       5.19200409      10.09788646        3       0.03431291      -0.01951369       0.04587638      -0.00481905
Cu      -0.00001456       1.48341895      12.22216237        2       0.01418274      -0.00468599       0.05595553      -0.00310064
Cu       2.56938632       1.48343972      12.22228812        2      -0.07010202      -0.07888442       0.05098185       0.00702440
Cu       5.13868200       1.48341490      12.22229490        2       0.05129053       0.02485517       0.05866812      -0.01887693
Cu       1.28472730       3.70860469      12.22229670        2       0.00820437      -0.01991497       0.06502442      -0.00207806
Cu       3.85404919       3.70853617      12.22226661        2      -0.02925744       0.01363966       0.04397459      -0.00749138
Cu       6.42343137       3.70855859      12.22219237        2       0.00696798      -0.05448493       0.05932197      -0.01862550
Cu       2.56933175       5.93372331      12.22226822        2       0.01963918       0.00169324       0.06901548      -0.00129127
Cu       5.13873976       5.93371007      12.22221793        2       0.03811072       0.10198950       0.05231173       0.00741993
Cu       7.70811165       5.93376676      12.22227910        2      -0.06081020       0.03199680       0.06017134       0.00521525
Cu       0.00003176       0.00005032      14.34901118        1      -0.03690631      -0.02906175       0.26863374      -0.02570729
Cu       2.56930125       0.00001804      14.34916312        1       0.06758240      -0.05822260       0.36403905      -0.05783724
Cu       5.13864853       0.00002580      14.34922433        1       0.02666770      -0.29747056       0.23523858      -0.02621397
Cu       1.28470809       2.22517124      14.34907163        1      -0.00313904       0.04799131       0.26669482      -0.02651034
Cu       3.85409307       2.22518508      14.34928516        1      -0.22714880      -0.31351791       0.13080485       0.01050666
Cu       6.42349021       2.22507450      14.34904494        1       0.00357221      -0.01633919       0.42320442       0.05314590
Cu       2.56959011       4.45037276      14.34913478        1      -0.34096815       0.19883148       0.19475212      -0.05730299
Cu       5.13896751       4.45026038      14.34907842        1       0.13686016       0.34353255       0.14797651       0.00553796
Cu       7.70816084       4.45028686      14.34912297        1       0.25967609       0.12756851       0.24287453      -0.02609872
O        5.97875390       2.46450135      17.03216546        0      -0.08129087       0.02511887       0.36291195      -0.50612226
C        5.15410968       2.91684392      16.02123963        0      -0.14855609       0.10545211       0.21089800       0.18706499
H        4.97522589       4.01870723      16.18032036        0       0.05739380       0.21226244      -0.20573482       0.07523685
H        4.11327087       2.50984196      16.19318624        0      -0.07443590      -0.13862287      -0.19306845       0.07666704
H        5.56358697       2.75255826      17.86450853        0       0.37733441      -0.21971762       0.15194610       0.36814623
