29
Lattice="8.493 0.0 0.0 4.2465 6.005457892617349 0.0 0.0 0.0 20.003638595078232" Properties=species:S:1:pos:R:3:tags:I:1:forces:R:3:charge:R:1 charge=0 spin=0 energy=-2173.578922563182 free_energy=-2173.578922563182 stress="0.021988797847995296 -0.0017709599247899457 0.0009928027111774397 -0.0017709599247899457 0.003325183131243937 -0.0036110010494875538 0.0009928027111774397 -0.0036110010494875538 -0.019291019728480154" dipole="0.4302685933926431 0.5440436098168865 0.44869247638935733" pbc="T T T"
Fe       0.00000000       0.00000000       8.00000000        3       0.06876903      -0.09109480      -0.07134129      -0.00241307
Fe       2.83100000       0.00000000       8.00000000        3      -0.14378696       0.04044294      -0.05318891      -0.00327086
Fe       5.66200000       0.00000000       8.00000000        3       0.03214894       0.02717370      -0.08578453      -0.00124948
Fe       1.41550000       2.00181930       8.00000000        3       0.05631251      -0.07654786      -0.15845573      -0.00281733
Fe       4.24650000       2.00181930       8.00000000        3      -0.05199629      -0.02380533       0.04794425      -0.00328438
Fe       7.07750000       2.00181930       8.00000000        3      -0.01633941       0.00280450       0.00131561      -0.00288124
Fe       2.83100000       4.00363860       8.00000000        3       0.07845528      -0.04102312      -0.05372450      -0.00202507
Fe       5.66200000       4.00363860       8.00000000        3      -0.05234444       0.01798247      -0.02826428      -0.00377542
Fe       8.49300000       4.00363860       8.00000000        3       0.07423955      -0.02364812      -0.04168699      -0.00240746
Fe       0.00000000       2.00181930      10.00181930        2      -0.07102303       0.38940540      -0.11297178       0.00229183
Fe       2.83100000       2.00181930      10.00181930        2      -0.30673220      -0.09360915       0.13582603       0.00092611
Fe       5.66200000       2.00181930      10.00181930        2       0.24505155      -0.13151190      -1.36380405       0.00973954
Fe       1.41550000       4.00363860      10.00181930        2       0.08932517       0.42085443      -0.59587071       0.00447140
Fe       4.24650000       4.00363860      10.00181930        2       0.01459660      -0.40661152       0.07222726       0.00113765
Fe       7.07750000       4.00363860      10.00181930        2      -0.10214897      -0.27376074      -0.42901606       0.00421815
Fe       2.83100000       6.00545789      10.00181930        2      -0.00751826       0.52523948      -0.57826831       0.00331970
Fe       5.66200000       6.00545789      10.00181930        2      -0.05982712      -0.26609831       0.38098141       0.00218719
Fe       8.49300000       6.00545789      10.00181930        2       0.45365738      -0.46939962      -1.14155970       0.00627302
Fe      -0.39294215      -0.64081239      11.89914594        1       0.33424165       0.01300369       0.21502363       0.01187790
Fe       3.15129007       0.29900728      11.82621820        1      -0.90372672      -0.05318747       0.74494073       0.01554957
Fe       5.67580923      -0.51311943      11.82642584        1       0.38763205      -1.91957970     -11.91416316      -0.02483536
Fe       1.05372265       1.35349095      11.91274636        1      -0.14125297       0.11395783       0.11337752       0.00056597
Fe       4.55718257       2.19495814      11.91059787        1       1.11158298      -0.24460808       2.87703278       0.06866736
Fe       7.10981515       1.49918791      11.89013415        1      -0.87257711       0.27708819       1.68123170       0.04959808
Fe       2.47355433       3.34496955      11.89808500        1       0.08448136       0.03174251       0.31319300       0.00750494
Fe       5.98591592       4.41079687      11.91895696        1      -0.13905426       0.37414315       0.15941752       0.03949799
Fe       8.55500895       3.53463000      11.82006576        1       0.18181415      -0.13802534       0.20303164       0.00988007
O        5.66125569       1.89536687      13.10691458        0       0.00103537      -0.00469701       0.00188155      -0.31309890
H        5.66074668      -0.32686385      12.99546296        0      -0.00115777      -0.01100658      -0.00785825       0.12435212
