41
Lattice="7.708127040155146 0.0 0.0 3.854063520077573 6.675433832372109 0.0 0.0 0.0 22.29365937364323" Properties=species:S:1:pos:R:3:tags:I:1:forces:R:3:charge:R:1 energy=-4376.597011667558 free_energy=-4376.597011667558 stress="-0.0124136716413591 -0.002299547524510017 0.00012553465374263726 -0.002299547524510017 -0.015050241940124486 0.0007976241571253631 0.00012553465374263726 0.0007976241571253631 -0.016351979234918382" dipole="0.768474038115788 -0.2390634500802542 1.1534682537860586" pbc="T T F"
Cu      -0.00000000       0.00000000       8.00000000        4      -0.07206507       0.00017952      -0.28323459       0.00900498
Cu       2.56937568      -0.00000000       8.00000000        4       0.01860626       0.00292373      -0.29698725      -0.02113321
Cu       5.13875136       0.00000000       8.00000000        4       0.05015069       0.01764374      -0.31673037       0.00262442
Cu       1.28468784       2.22514461       8.00000000        4      -0.02384824       0.01163072      -0.29693984       0.02120885
Cu       3.85406352       2.22514461       8.00000000        4       0.04271941      -0.05079695      -0.30012762       0.01069922
Cu       6.42343920       2.22514461       8.00000000        4      -0.02078135       0.00235143      -0.35894463      -0.03305804
Cu       2.56937568       4.45028922       8.00000000        4      -0.04090729       0.05099661      -0.30750926      -0.00803547
Cu       5.13875136       4.45028922       8.00000000        4       0.05864475      -0.03469000      -0.27001387       0.00459499
Cu       7.70812704       4.45028922       8.00000000        4      -0.01903551      -0.03956959      -0.30425149       0.00036333
Cu       1.28468784       0.74171487      10.09788646        3       0.03869183      -0.01327902      -0.04904746      -0.00058538
Cu       3.85406352       0.74171487      10.09788646        3      -0.02661507       0.02243215      -0.02511657       0.00402921
Cu       6.42343920       0.74171487      10.09788646        3      -0.00532522       0.01939696      -0.02524886      -0.00177638
Cu       2.56937568       2.96685948      10.09788646        3      -0.00871399       0.03923401       0.02336123      -0.00559060
Cu       5.13875136       2.96685948      10.09788646        3       0.06219897      -0.01860626      -0.05724098       0.00340763
Cu       7.70812704       2.96685948      10.09788646        3      -0.04832541       0.01494833      -0.03712804      -0.00756773
Cu       3.85406352       5.19200409      10.09788646        3      -0.06050784       0.02904903      -0.05717545       0.00447488
Cu       6.42343920       5.19200409      10.09788646        3      -0.01029595       0.01737550      -0.10891618       0.02626376
Cu       8.99281488       5.19200409      10.09788646        3       0.07645310      -0.00750607      -0.03996336      -0.01263323
Cu      -0.00001456       1.48341895      12.22216237        2      -0.04182393      -0.06390337       0.00544057       0.00910848
Cu       2.56938632       1.48343972      12.22228812        2       0.00280175      -0.07000991       0.13851325      -0.01379702
Cu       5.13868200       1.48341490      12.22229490        2       0.03571543      -0.03196276       0.04069118      -0.00781447
Cu       1.28472730       3.70860469      12.22229670        2       0.03907001       0.03499942       0.05699912       0.01742035
Cu       3.85404919       3.70853617      12.22226661        2      -0.03681565       0.01882457       0.09310276      -0.00455170
Cu       6.42343137       3.70855859      12.22219237        2      -0.00766211      -0.05990899       0.00780694      -0.01265295
Cu       2.56933175       5.93372331      12.22226822        2       0.01425054      -0.01437345       0.01023544       0.00694968
Cu       5.13873976       5.93371007      12.22221793        2      -0.01232577       0.03755653       0.09283334      -0.01525001
Cu       7.70811165       5.93376676      12.22227910        2       0.00225587       0.01960185       0.04273374      -0.01682979
Cu       0.00003176       0.00005032      14.34901118        1      -0.16384998       0.03033477       0.20817304       0.01994608
Cu       2.56930125       0.00001804      14.34916312        1      -0.03174806       0.18318273       0.40872492       0.05316761
Cu       5.13864853       0.00002580      14.34922433        1       0.19157730       0.05108494       0.27370456      -0.03424303
Cu       1.28470809       2.22517124      14.34907163        1       0.12872773      -0.01674201       0.31438982      -0.06284464
Cu       3.85409307       2.22518508      14.34928516        1      -0.13027957      -0.10917350       0.26019416      -0.02692793
Cu       6.42349021       2.22507450      14.34904494        1       0.04561476       0.05879223       0.44761027      -0.08993294
Cu       2.56959011       4.45037276      14.34913478        1      -0.07229011       0.05193305       0.33489724      -0.09685648
Cu       5.13896751       4.45026038      14.34907842        1      -0.30846258       0.01648664       0.04206901       0.08352169
Cu       7.70816084       4.45028686      14.34912297        1       0.45004028      -0.23291261      -0.06475626      -0.01379000
O        6.42288658       5.17993275      16.21622111        0      -0.06523712     255.35894156     -20.66346443      -0.45432581
C        6.42326458       3.76658433      16.33062524        0       0.10495658    -255.23434335      20.45818318       0.11502568
H        5.45354902       3.41959443      16.69350060        0      -0.17615100      -0.06144069       0.06503394       0.08917242
H        7.16929957       3.42553589      17.05025036        0       0.14413511      -0.06384233       0.13535680       0.06561048
H        7.37708269       4.60444759      15.98932882        0      -0.00477514      -0.00478128       0.00091288       0.39360309
