31
Lattice="8.493 0.0 0.0 4.2465 6.005457892617349 0.0 0.0 0.0 20.003638595078232" Properties=species:S:1:pos:R:3:tags:I:1:forces:R:3:charge:R:1 charge=0 spin=0 energy=-2456.724719448604 free_energy=-2456.724719448604 stress="0.021755284417129005 -0.0013099395557034175 0.00034225902554039774 -0.0013099395557034175 0.005252872244521294 0.00013493779575814749 0.00034225902554039774 0.00013493779575814749 -0.0010519730969232397" dipole="-2.3216536456712284 -2.230854380004157 0.6282005874512406" pbc="T T T"
Fe       0.00000000       0.00000000       8.00000000        3       0.07488570      -0.01466223       0.01540996      -0.00355500
Fe       2.83100000       0.00000000       8.00000000        3      -0.06793240      -0.02406269       0.00983763      -0.00359575
Fe       5.66200000       0.00000000       8.00000000        3       0.00253580       0.00138884      -0.22345078      -0.00194180
Fe       1.41550000       2.00181930       8.00000000        3       0.00160859       0.03287152       0.05100505      -0.00378077
Fe       4.24650000       2.00181930       8.00000000        3       0.02175676      -0.00016000      -0.01726883      -0.00261862
Fe       7.07750000       2.00181930       8.00000000        3      -0.02721077      -0.00139340      -0.01751368      -0.00265693
Fe       2.83100000       4.00363860       8.00000000        3      -0.11222968       0.03930049      -0.04380188      -0.00287535
Fe       5.66200000       4.00363860       8.00000000        3      -0.00079010      -0.04613113      -0.18468261      -0.00279319
Fe       8.49300000       4.00363860       8.00000000        3       0.11119554       0.04549789      -0.04199116      -0.00294046
Fe       0.00000000       2.00181930      10.00181930        2      -0.76666099      -0.03970826      -0.00626924       0.00160128
Fe       2.83100000       2.00181930      10.00181930        2       0.79074714      -0.01918192      -0.03811177       0.00196708
Fe       5.66200000       2.00181930      10.00181930        2       0.00506106       0.01247063      -0.57703744       0.00366836
Fe       1.41550000       4.00363860      10.00181930        2       0.02960041      -0.30709558       0.01382568       0.00085045
Fe       4.24650000       4.00363860      10.00181930        2       0.42799933       0.12897997      -0.89571650       0.00213004
Fe       7.07750000       4.00363860      10.00181930        2      -0.47144556       0.08235303      -0.96307533       0.00257593
Fe       2.83100000       6.00545789      10.00181930        2      -0.56064455      -0.13354520      -0.85793617       0.00198279
Fe       5.66200000       6.00545789      10.00181930        2      -0.01418591       0.22193039       0.32625720       0.00234034
Fe       8.49300000       6.00545789      10.00181930        2       0.59486154      -0.06257120      -0.93815672       0.00098783
Fe      -0.26518266       0.20945978      11.83722203        1       0.69539802       0.12924675       0.56532499       0.01109169
Fe       3.10512793       0.18549752      11.83541618        1      -0.73468260       0.11071080       0.62125629       0.00477140
Fe       5.66127124      -0.56860039      11.83522456        1       0.07562475       0.14127117       1.79398052       0.03270798
Fe       1.41585411       2.01518229      11.75852330        1      -0.02015872      -0.12706031       0.40892046      -0.00084440
Fe       4.47368163       1.98069598      12.10686849        1       0.99944559       0.26782986       1.71061849       0.00753522
Fe       6.85044192       1.98487394      12.10678346        1      -1.09401029      -0.03139312       1.76630121       0.01722752
Fe       3.11615338       3.77708131      11.83899590        1      -0.42075342      -0.16213661       0.56805526       0.01230882
Fe       5.66167640       4.54490648      11.82915865        1      -0.03699232       0.22771220       0.07869328       0.00897855
Fe       8.20150754       3.79684420      11.83610770        1       0.43404202      -0.17745695       0.69149870       0.01011597
N        5.66166931       2.00201707      13.62180647        0       0.13272223       0.20359336       0.53050096      -0.18473908
H        5.08913922       0.96765558      14.19730487        0       0.00145622      -0.00060374      -0.00090476       0.36406356
H        5.89675411       2.36220948      14.55491655        0      -0.13345726      -0.20454918      -0.52981372       0.27419289
O        5.66264571      -0.00167184      14.41331183        0      -0.00079736       0.00140165       0.00027220      -0.54875636
