30
Lattice="8.493 0.0 0.0 4.2465 6.005457892617349 0.0 0.0 0.0 20.003638595078232" Properties=species:S:1:pos:R:3:tags:I:1:forces:R:3 charge=0 spin=0 energy=-196.15087707536236 free_energy=-196.15087707536236 stress="0.044174209237098694 -0.00014303353964351118 -1.7520168285045656e-06 -0.00014303353964351118 0.031467556953430176 -0.00016639837122056633 -1.7520168285045656e-06 -0.00016639837122056633 0.008895630948245525" pbc="T T T"
Fe       0.00000000       0.00000000       8.00000000        3       0.07983960      -0.00903454       0.54757798
Fe       2.83100000       0.00000000       8.00000000        3      -0.07925396      -0.00320109       0.48783165
Fe       5.66200000       0.00000000       8.00000000        3       0.00510443       0.03011370       0.38861865
Fe       1.41550000       2.00181930       8.00000000        3       0.00059619      -0.00181053       0.71476984
Fe       4.24650000       2.00181930       8.00000000        3       0.03416438       0.00260947       0.53505415
Fe       7.07750000       2.00181930       8.00000000        3      -0.03365530      -0.00554260       0.53650236
Fe       2.83100000       4.00363860       8.00000000        3      -0.08634838       0.00646628       0.54557383
Fe       5.66200000       4.00363860       8.00000000        3      -0.00459592      -0.03128925       0.39029154
Fe       8.49300000       4.00363860       8.00000000        3       0.08355989      -0.00114492       0.48894572
Fe       0.00000000       2.00181930      10.00181930        2      -0.54560959       0.00602472      -0.11287180
Fe       2.83100000       2.00181930      10.00181930        2       0.54582351      -0.02111182      -0.11097030
Fe       5.66200000       2.00181930      10.00181930        2      -0.00029151       0.02271434      -0.13423316
Fe       1.41550000       4.00363860      10.00181930        2      -0.03093181       0.27273622       0.09959364
Fe       4.24650000       4.00363860      10.00181930        2      -0.04000378      -0.06063699      -1.15166533
Fe       7.07750000       4.00363860      10.00181930        2       0.05280150      -0.09529497      -1.12230694
Fe       2.83100000       6.00545789      10.00181930        2       0.01260653       0.09019781      -1.12497211
Fe       5.66200000       6.00545789      10.00181930        2       0.03063051      -0.28401816       0.06299977
Fe       8.49300000       6.00545789      10.00181930        2      -0.02507874       0.12972568      -1.09888077
Fe      -0.11440417       0.15296491      11.83134186        1      -0.24447681       0.19514310      -0.00209859
Fe       2.94547642       0.14666843      11.83360771        1       0.25231624       0.17689389      -0.00481818
Fe       5.66436264      -0.29976750      11.78502073        1      -0.00644518      -0.46453276       0.03838119
Fe       1.41580538       2.00599064      11.83709763        1       0.00124333       0.01649129      -0.10932603
Fe       4.47239862       1.99510904      12.05851551        1       0.01240819      -0.02138299       0.03621365
Fe       6.85304850       1.99539830      12.05879347        1      -0.01235355      -0.01918867       0.03831605
Fe       2.95498787       3.84377028      11.83186207        1       0.26089737      -0.20466831      -0.00381670
Fe       5.65873745       4.28987924      11.78608661        1       0.00575552       0.42877057       0.03251703
Fe       8.36877602       3.84950226      11.83409872        1      -0.26837945      -0.18841015      -0.00607683
N        5.66268465       1.97260352      13.60220994        0      -0.00025624      -0.26032859       0.01397725
H        5.66119989       2.79821454      14.20730812        0      -0.00506741       0.14975023       0.13630450
H        5.66396841       1.13826527      14.21136160        0       0.00500074       0.14395903      -0.11143214
