41
Lattice="7.708127040155146 0.0 0.0 3.854063520077573 6.675433832372109 0.0 0.0 0.0 22.29365937364323" Properties=species:S:1:pos:R:3:tags:I:1:forces:R:3:charge:R:1 energy=-4066.1982601905956 free_energy=-4066.1982601905956 stress="-0.01631349338412356 -0.002163386359628005 -0.0019806586804156203 -0.002163386359628005 -0.014600643949536482 -0.001518139081260515 -0.0019806586804156203 -0.001518139081260515 -0.01524566850424255" dipole="0.6428705847834703 0.8295990027533523 2.082410904601518" pbc="T T F"
Cu      -0.00000000      -0.00000000       8.00000000        4       0.04619190      -0.05671355      -0.33933047      -0.00942288
Cu       2.56937568      -0.00000000       8.00000000        4      -0.03259726      -0.00056281      -0.32863087      -0.02336027
Cu       5.13875136       0.00000000       8.00000000        4       0.00057881       0.01145287      -0.28801967       0.00970433
Cu       1.28468784       2.22514461       8.00000000        4      -0.06324386       0.01133486      -0.28986781      -0.00263706
Cu       3.85406352       2.22514461       8.00000000        4       0.00435172      -0.06766941      -0.27103868       0.01276459
Cu       6.42343920       2.22514461       8.00000000        4       0.07062688       0.05109189      -0.33844730      -0.01449471
Cu       2.56937568       4.45028922       8.00000000        4       0.00784543       0.06228597      -0.28700044      -0.02237734
Cu       5.13875136       4.45028922       8.00000000        4       0.02346515       0.08550092      -0.31095754       0.00161566
Cu       7.70812704       4.45028922       8.00000000        4      -0.02061330      -0.07956551      -0.29467330      -0.01638007
Cu       1.28468784       0.74171487      10.09788646        3       0.02293888      -0.07936034       0.00226066      -0.00351842
Cu       3.85406352       0.74171487      10.09788646        3      -0.04575297       0.02223861       0.00576435      -0.00263209
Cu       6.42343920       0.74171487      10.09788646        3      -0.01254606      -0.01967136      -0.01317707      -0.01755776
Cu       2.56937568       2.96685948      10.09788646        3       0.00981923      -0.00667072      -0.08264839       0.01626787
Cu       5.13875136       2.96685948      10.09788646        3      -0.00197701      -0.03189683      -0.01307031      -0.01411243
Cu       7.70812704       2.96685948      10.09788646        3      -0.04188781      -0.01430342      -0.10095211       0.01593618
Cu       3.85406352       5.19200409      10.09788646        3      -0.01470377       0.03928124      -0.04639939       0.00800946
Cu       6.42343920       5.19200409      10.09788646        3      -0.07462240       0.04316420      -0.03885703      -0.00014054
Cu       8.99281488       5.19200409      10.09788646        3       0.05668251      -0.00185336      -0.09689225       0.03521626
Cu      -0.00001456       1.48341895      12.22216237        2      -0.02114924       0.01988137      -0.00319889      -0.00441900
Cu       2.56938632       1.48343972      12.22228812        2       0.03216606      -0.04415710       0.07900235      -0.00584567
Cu       5.13868200       1.48341490      12.22229490        2       0.01942731       0.02962685       0.05632863       0.03290628
Cu       1.28472730       3.70860469      12.22229670        2      -0.00485357      -0.01012001      -0.02353661      -0.01998418
Cu       3.85404919       3.70853617      12.22226661        2       0.03496798       0.03922422       0.10569452      -0.00948888
Cu       6.42343137       3.70855859      12.22219237        2       0.00638252      -0.02610243      -0.00432993      -0.01203064
Cu       2.56933175       5.93372331      12.22226822        2       0.07100110       0.01270367       0.09116177      -0.02718463
Cu       5.13873976       5.93371007      12.22221793        2       0.01289075       0.01658266       0.01989819       0.01431414
Cu       7.70811165       5.93376676      12.22227910        2      -0.04347418       0.02496427       0.07551867      -0.02348525
Cu       0.00003176       0.00005032      14.34901118        1       0.07606976      -0.09657116       0.29138007      -0.06930394
Cu       2.56930125       0.00001804      14.34916312        1      -0.11425366       0.06064283       0.32261703      -0.08991651
Cu       5.13864853       0.00002580      14.34922433        1       0.03562864       0.30636117       0.24497790      -0.01100544
Cu       1.28470809       2.22517124      14.34907163        1       0.04280936      -0.38232172       0.03842731       0.01222584
Cu       3.85409307       2.22518508      14.34928516        1       0.12300453      -0.18520181       0.27863726      -0.04905581
Cu       6.42349021       2.22507450      14.34904494        1      -0.10306730      -0.11750509       0.34159093      -0.08507932
Cu       2.56959011       4.45037276      14.34913478        1       0.37283716       0.00855485       0.07864955       0.15250785
Cu       5.13896751       4.45026038      14.34907842        1      -0.05193978       0.15943626       0.28416003      -0.07175754
Cu       7.70816084       4.45028686      14.34912297        1      -0.47959018       0.00676811      -0.04970248       0.11054931
O        9.19228164       4.28108323      16.05788567        0     285.90180851     212.32871891     -41.17120041      -0.47357597
C        8.06144755       3.44124066      16.22073798        0    -285.79796297    -212.23371086      40.98055167       0.10862912
H        7.25634451       3.91607192      16.78533736        0      -0.16959794       0.10302042       0.10393608       0.05814917
H        8.33440494       2.48540432      16.67085900        0       0.05326663      -0.18999419       0.08863627       0.06572628
H        8.78243355       4.09671836      17.10119535        0       0.00063681      -0.00545202      -0.01111420       0.42424400
