28
Lattice="8.493 0.0 0.0 4.2465 6.005457892617349 0.0 0.0 0.0 20.003638595078232" Properties=species:S:1:pos:R:3:tags:I:1:forces:R:3 charge=0 spin=0 energy=-183.05690817544686 free_energy=-183.05690817544686 stress="0.047966767102479935 0.00010964660759782419 -1.1765541430008852e-08 0.00010964660759782419 0.03149740770459175 1.2224988799047765e-09 -1.1765541430008852e-08 1.2224988799047765e-09 0.011421464383602142" pbc="T T T"
Fe       0.00000000       0.00000000       8.00000000        3       0.00000152       0.00000135       0.47216550
Fe       2.83100000       0.00000000       8.00000000        3       0.01126445       0.00555628       0.54151112
Fe       5.66200000       0.00000000       8.00000000        3      -0.01126295      -0.00555382       0.54151160
Fe       1.41550000       2.00181930       8.00000000        3      -0.07480583       0.00376185       0.62061769
Fe       4.24650000       2.00181930       8.00000000        3       0.02645323      -0.00924171       0.55585188
Fe       7.07750000       2.00181930       8.00000000        3      -0.00673529      -0.01504983       0.53350770
Fe       2.83100000       4.00363860       8.00000000        3       0.07480512      -0.00376290       0.62061846
Fe       5.66200000       4.00363860       8.00000000        3       0.00673386       0.01504955       0.53350955
Fe       8.49300000       4.00363860       8.00000000        3      -0.02645494       0.00924049       0.55585027
Fe       0.00000000       2.00181930      10.00181930        2      -0.26129600       0.06307989      -0.16057840
Fe       2.83100000       2.00181930      10.00181930        2       0.05399917       0.00288734      -0.57571268
Fe       5.66200000       2.00181930      10.00181930        2       0.30600768      -0.02053674      -0.47396138
Fe       1.41550000       4.00363860      10.00181930        2      -0.05400280      -0.00288403      -0.57571787
Fe       4.24650000       4.00363860      10.00181930        2       0.26129380      -0.06307965      -0.16057040
Fe       7.07750000       4.00363860      10.00181930        2      -0.30600557       0.02053252      -0.47395930
Fe       2.83100000       6.00545789      10.00181930        2       0.01981851      -0.04933778      -0.68587470
Fe       5.66200000       6.00545789      10.00181930        2      -0.01981833       0.04933801      -0.68586749
Fe       8.49300000       6.00545789      10.00181930        2      -0.00000017      -0.00000036      -0.51373541
Fe       0.00000040      -0.00000015      11.85240037        1      -0.00000152      -0.00000570      -0.03149270
Fe       2.81491788       0.01022976      11.85869991        1      -0.02595342       0.05832249      -0.00009326
Fe       5.67808570      -0.01022893      11.85869973        1       0.02595384      -0.05831872      -0.00009169
Fe       1.42304535       1.99933613      11.86414646        1       0.03847670      -0.00966572      -0.00661724
Fe       4.23412341       2.01035915      11.85504994        1       0.01902655       0.07585838      -0.02859492
Fe       7.00522037       1.98162075      11.96165092        1      -0.15787339      -0.19159541      -0.12138733
Fe       2.82345136       4.00612062      11.86414613        1      -0.03847634       0.00965877      -0.00662059
Fe       5.73427935       4.02383805      11.96165064        1       0.15787324       0.19159846      -0.12138936
Fe       8.50537620       3.99509902      11.85505062        1      -0.01902126      -0.07585328      -0.02860039
H        6.36974910       3.00272902      13.17376659        0      -0.00000012       0.00000018      -0.32427862
