29
Lattice="8.493 0.0 0.0 4.2465 6.005457892617349 0.0 0.0 0.0 20.003638595078232" Properties=species:S:1:pos:R:3:tags:I:1:forces:R:3 charge=0 spin=0 energy=-191.89055855237757 free_energy=-191.89055855237757 stress="0.04699257016181946 -0.00015371844347100705 5.260915827420831e-07 -0.00015371844347100705 0.03307664394378662 8.967234066403762e-08 5.260915827420831e-07 8.967234066403762e-08 0.012383466586470604" pbc="T T T"
Fe       0.00000000       0.00000000       8.00000000        3      -0.01144964       0.00205018       0.53971362
Fe       2.83100000       0.00000000       8.00000000        3       0.03362870      -0.01059919       0.53727877
Fe       5.66200000       0.00000000       8.00000000        3       0.00692248      -0.00859702       0.49581063
Fe       1.41550000       2.00181930       8.00000000        3       0.00000569       0.00000551       0.74538642
Fe       4.24650000       2.00181930       8.00000000        3       0.05621079      -0.00566028       0.62445730
Fe       7.07750000       2.00181930       8.00000000        3      -0.05622767       0.00567334       0.62447041
Fe       2.83100000       4.00363860       8.00000000        3       0.01143400      -0.00204728       0.53968358
Fe       5.66200000       4.00363860       8.00000000        3      -0.00691478       0.00860677       0.49581355
Fe       8.49300000       4.00363860       8.00000000        3      -0.03361878       0.01059761       0.53725195
Fe       0.00000000       2.00181930      10.00181930        2      -0.05736542       0.00785957      -0.57408500
Fe       2.83100000       2.00181930      10.00181930        2       0.05750399      -0.00792485      -0.57395822
Fe       5.66200000       2.00181930      10.00181930        2      -0.00008186      -0.00000209      -0.34278345
Fe       1.41550000       4.00363860      10.00181930        2      -0.03972090       0.04727336      -0.61121809
Fe       4.24650000       4.00363860      10.00181930        2       0.28361496      -0.00300071      -0.43440601
Fe       7.07750000       4.00363860      10.00181930        2      -0.29974672      -0.00342444      -0.42993093
Fe       2.83100000       6.00545789      10.00181930        2      -0.28374040       0.00297651      -0.43429625
Fe       5.66200000       6.00545789      10.00181930        2       0.03971481      -0.04734534      -0.61115575
Fe       8.49300000       6.00545789      10.00181930        2       0.29986706       0.00331884      -0.42982578
Fe      -0.00116172       0.02711744      11.84094667        1      -0.12155630       0.14736310      -0.05926447
Fe       2.82899521       0.02222246      11.84218018        1       0.10423961       0.12324712      -0.05756490
Fe       5.66862782      -0.03311581      11.92252799        1       0.01982582      -0.15340133      -0.02198342
Fe       1.41549977       2.00182103      11.86439126        1       0.00002100       0.00002113      -0.00499846
Fe       4.27648355       2.00745174      12.01653471        1      -0.43018168      -0.00396166       0.08215745
Fe       7.04750622       1.99620079      12.01649997        1       0.43025044       0.00413593       0.08201856
Fe       2.83215770       3.97652974      11.84094612        1       0.12154839      -0.14729407      -0.05924142
Fe       5.65537952       4.03677626      11.92249171        1      -0.01984722       0.15359713      -0.02216035
Fe       8.49500383       3.98141836      11.84218116        1      -0.10416570      -0.12313716      -0.05757162
N        5.66201684       2.00175012      13.20496182        0       0.00007490      -0.00026267      -0.29480773
H        5.66213461       2.00178533      14.24335681        0      -0.00024580      -0.00006780      -0.28479019
