30
Lattice="8.720182995786269 0.0 0.0 -4.360091497893134 13.975874090016696 0.0 0.0 0.0 39.797220234826575" Properties=species:S:1:pos:R:3:tags:I:1:forces:R:3 spacegroup="R -3 c" unit_cell=conventional energy=-876.1016845703125 stress="0.010520150884985924 -0.00014824408572167158 4.8414847697131336e-05 -0.00014824408572167158 0.0008794814348220825 7.790647214278579e-05 4.8414847697131336e-05 7.790647214278579e-05 -5.214111661189236e-05" free_energy=-876.1016845703125 pbc="T T T"
Fe       4.45715211       8.93928672      15.78078666        1      -0.00290473      -0.00670536      -0.00513369
Fe       5.13481808      11.92823622      16.13045908        1       0.00527517       0.00798331       0.00615507
Fe       1.45419761       4.70751484      16.84943614        2      -0.00498172       0.00851339       0.00301455
Fe       1.59333672       7.38064331      16.17666989        1      -0.00458897       0.00016093      -0.00335322
Fe      -0.78118321      14.12882676      16.04380438        1       0.00269915       0.00078863      -0.00479266
Fe       7.40019296       2.96760225      17.05434475        2      -0.00108319       0.00807694      -0.00249308
Fe       4.41701187       5.12245932      16.81469330        2       0.01157090       0.00832409       0.00370755
Fe       4.37939979       2.67105296      17.15331956        2       0.01051313      -0.00603461      -0.00844276
Fe       1.32404818       0.82369497      17.42990836        2       0.00434849      -0.00132725      -0.00150023
Fe       1.66159155      11.36239175      16.11143779        1      -0.00848509       0.00400147       0.00175941
Fe      -1.30750388       9.31079181      15.62200733        1       0.00476415      -0.00184273      -0.00463103
Fe      -1.37510936       6.97497043      16.29208710        1       0.00857224       0.00116197      -0.00163658
O       -2.82465459      10.39996260      15.46958142        1      -0.00602311       0.00417477       0.00302418
O        3.48936149      10.91989868      16.11193108        1       0.00407585       0.00771520       0.00657514
O        0.02658496      10.44950059      16.25417794        1       0.00604746       0.00586778      -0.00812244
O        2.85088734       6.24887104      17.21451064        2       0.00158614       0.00582356       0.00092947
O        0.22284144       6.23928194      17.12852469        2       0.00523241      -0.00454371      -0.00026470
O        5.85744202       6.29098618      17.33703374        2      -0.00270580      -0.00036040      -0.00874889
O        4.45909949       1.60589216      15.72686924        1       0.00046755       0.00482838       0.00065193
O        2.00427886       0.91853747      15.77086457        1       0.00053377      -0.00123736       0.00617039
O        7.25827676       1.54780359      15.96249882        1      -0.00423715       0.00590068      -0.00249618
O        3.08649661       3.91346996      16.28729090        1      -0.00099218      -0.01137979      -0.00471678
O        5.71469365       3.80807122      16.41513953        2      -0.00402509       0.00244021       0.00049391
O        0.08746337       3.76841414      16.21980447        1       0.00304020      -0.00106933      -0.00593022
O        4.34990687      13.46208360      16.83298982        2       0.00357114       0.00237830       0.00083230
O       -1.75104560      12.60148436      16.72058013        2      -0.00278617      -0.00237839       0.00329325
O        0.96631275      13.16920763      16.51967811        2      -0.00091756       0.00114758       0.00075193
O        6.14204047       7.92994716      15.23965716        1       0.00018646       0.00561365      -0.00379238
O       -0.04716027       7.88926599      15.30148091        1       0.00042135      -0.00067947       0.00235128
O        2.90164155       8.10798870      15.20846274        1       0.00241533      -0.00540221      -0.00361779

