31
Lattice="8.493 0.0 0.0 4.2465 6.005457892617349 0.0 0.0 0.0 20.003638595078232" Properties=species:S:1:pos:R:3:tags:I:1:forces:R:3:charge:R:1 charge=0 spin=0 energy=-2452.6921453182063 free_energy=-2452.6921453182063 stress="0.016692483656614496 3.863662408610461e-05 0.002149041447583121 3.863662408610461e-05 0.0016768746566533674 -0.0001446974702406113 0.002149041447583121 -0.0001446974702406113 -0.011553891006221447" dipole="0.40795430963928264 0.04611271400003119 2.4291117809088765" pbc="T T T"
Fe       0.00000000       0.00000000       8.00000000        3       0.10412790       0.02914453      -0.05466128      -0.00679243
Fe       2.83100000       0.00000000       8.00000000        3      -0.10870757      -0.00775471       0.00340759      -0.00722304
Fe       5.66200000       0.00000000       8.00000000        3      -0.01438283      -0.00770821      -0.12930776      -0.00612616
Fe       1.41550000       2.00181930       8.00000000        3       0.00649899       0.00502898      -0.00622797      -0.00902087
Fe       4.24650000       2.00181930       8.00000000        3      -0.03529390      -0.00034012       0.07205162      -0.00727036
Fe       7.07750000       2.00181930       8.00000000        3       0.02032990      -0.00218559      -0.12466538      -0.00688808
Fe       2.83100000       4.00363860       8.00000000        3      -0.12634606       0.00370550       0.01077886      -0.00727325
Fe       5.66200000       4.00363860       8.00000000        3      -0.01738667       0.01871672      -0.12616972      -0.00614633
Fe       8.49300000       4.00363860       8.00000000        3       0.10653854      -0.02549960      -0.04887271      -0.00679044
Fe       0.00000000       2.00181930      10.00181930        2      -0.84072203      -0.03936724      -0.36111162      -0.00366297
Fe       2.83100000       2.00181930      10.00181930        2       0.80393695      -0.00652838      -0.79505208       0.01417962
Fe       5.66200000       2.00181930      10.00181930        2       0.16385617       0.02400348      -0.74795848       0.00024163
Fe       1.41550000       4.00363860      10.00181930        2       0.00050643      -0.22715320       0.33906797       0.00006497
Fe       4.24650000       4.00363860      10.00181930        2       0.63630070      -0.03709913      -1.09007078      -0.00001375
Fe       7.07750000       4.00363860      10.00181930        2      -0.57221939      -0.03051386      -0.82260711       0.00095631
Fe       2.83100000       6.00545789      10.00181930        2      -0.53118738       0.02409736      -0.64797531       0.00073719
Fe       5.66200000       6.00545789      10.00181930        2      -0.03857659       0.18300975       0.33688437       0.00019449
Fe       8.49300000       6.00545789      10.00181930        2       0.67979390       0.08316880      -1.09055814      -0.00013353
Fe      -0.26518266       0.20945978      11.83722203        1       0.26722725      -0.02828222       0.14875810      -0.00762431
Fe       3.10512793       0.18549752      11.83541618        1      -0.93597918      -0.16434320       0.95884511       0.02793569
Fe       5.66127124      -0.56860039      11.83522456        1      -0.09526324       0.12571423       0.04544045       0.00553438
Fe       1.41585411       2.01518229      11.75852330        1       0.72815195      -0.02092321       2.37366659       0.05406286
Fe       4.47368163       1.98069598      12.10686849        1       3.74232943      -0.20111537      -3.71841016       0.01779696
Fe       6.85044192       1.98487394      12.10678346        1      -1.06471741       0.05362642       2.12228467       0.00618100
Fe       3.11615338       3.77708131      11.83899590        1      -1.01109951       0.24372516       0.98919664       0.02948147
Fe       5.66167640       4.54490648      11.82915865        1      -0.15688818      -0.11849167       0.07343781       0.00491367
Fe       8.20150754       3.79684420      11.83610770        1       0.29025440      -0.04940950       0.32798690      -0.00774569
N        5.54236234       2.00193807      13.59902067        0      -0.01529303       0.01346857       0.74578035      -0.31173668
H        4.12922057       2.00454082      13.34525722        0       0.00675561       0.00424089      -0.00005484       0.36405770
H        5.50883450       2.02099585      14.62577454        0       0.02703471      -0.01494390      -0.73442406       0.25250267
O        2.94057313       2.00255004      12.84906149        0      -0.00669786       0.00013593      -0.00009450      -0.38439271
