41
Lattice="7.708127040155146 0.0 0.0 3.854063520077573 6.675433832372109 0.0 0.0 0.0 22.29365937364323" Properties=species:S:1:pos:R:3:tags:I:1:forces:R:3:charge:R:1 energy=-4149.318112099743 free_energy=-4149.318112099743 stress="-0.015615061162112559 -0.0018258606037719488 -0.0019146900152776918 -0.0018258606037719488 -0.014993765410436781 -0.0014493206101822318 -0.0019146900152776918 -0.0014493206101822318 -0.015618535599752691" dipole="1.1163171138698758 0.7432326285743518 2.1994175197816905" pbc="T T F"
Cu       0.00000000      -0.00000000       8.00000000        4       0.02521706      -0.03009677      -0.35115534      -0.01312172
Cu       2.56937568       0.00000000       8.00000000        4      -0.04358870       0.01243523      -0.32232250      -0.01811756
Cu       5.13875136       0.00000000       8.00000000        4       0.03203386      -0.00993868      -0.29446652       0.00076778
Cu       1.28468784       2.22514461       8.00000000        4      -0.06999800      -0.01775528      -0.29481443      -0.00311062
Cu       3.85406352       2.22514461       8.00000000        4       0.02699811      -0.06038148      -0.26730108       0.01649254
Cu       6.42343920       2.22514461       8.00000000        4       0.05491557       0.04907766      -0.35077065      -0.01546420
Cu       2.56937568       4.45028922       8.00000000        4      -0.01472539       0.08957186      -0.27569719      -0.01102311
Cu       5.13875136       4.45028922       8.00000000        4       0.03896777       0.04374149      -0.31755537      -0.00314059
Cu       7.70812704       4.45028922       8.00000000        4      -0.01355730      -0.07373995      -0.29369596      -0.02009850
Cu       1.28468784       0.74171487      10.09788646        3       0.02101504      -0.06777578       0.00643199      -0.00350035
Cu       3.85406352       0.74171487      10.09788646        3      -0.05031977       0.02781538       0.00242123      -0.00454897
Cu       6.42343920       0.74171487      10.09788646        3      -0.00470847      -0.02862421      -0.00553149      -0.01534511
Cu       2.56937568       2.96685948      10.09788646        3       0.01351833      -0.03553507      -0.07448888       0.00412249
Cu       5.13875136       2.96685948      10.09788646        3       0.00967114       0.00437071      -0.00134172      -0.01549567
Cu       7.70812704       2.96685948      10.09788646        3      -0.05392644      -0.02639530      -0.10480873       0.02095854
Cu       3.85406352       5.19200409      10.09788646        3       0.01474928       0.05194632      -0.02545259       0.00306813
Cu       6.42343920       5.19200409      10.09788646        3      -0.10508838       0.03028741      -0.05557629       0.00352223
Cu       8.99281488       5.19200409      10.09788646        3       0.05893479       0.03350207      -0.11285400       0.04415087
Cu      -0.00001456       1.48341895      12.22216237        2      -0.01487900       0.01332615      -0.01215212      -0.00983240
Cu       2.56938632       1.48343972      12.22228812        2       0.03460043      -0.02144376       0.07636945       0.01331592
Cu       5.13868200       1.48341490      12.22229490        2       0.01114918       0.01338698       0.01759246       0.02890503
Cu       1.28472730       3.70860469      12.22229670        2       0.01794473      -0.01480584      -0.01729559      -0.02439963
Cu       3.85404919       3.70853617      12.22226661        2       0.04025284       0.00158806       0.07365560       0.00447837
Cu       6.42343137       3.70855859      12.22219237        2       0.00524180      -0.02847649       0.02883413      -0.01541840
Cu       2.56933175       5.93372331      12.22226822        2       0.02805848       0.02532755       0.05895754      -0.02815502
Cu       5.13873976       5.93371007      12.22221793        2       0.00401784       0.01409720       0.03098739       0.01456970
Cu       7.70811165       5.93376676      12.22227910        2       0.00243788       0.03761122       0.05206916      -0.03646372
Cu       0.00003176       0.00005032      14.34901118        1       0.07664324      -0.06457167       0.32353052      -0.05626463
Cu       2.56930125       0.00001804      14.34916312        1      -0.20418449       0.21798171       0.29852175      -0.08200286
Cu       5.13864853       0.00002580      14.34922433        1       0.06020923       0.31471839       0.27257420       0.00422668
Cu       1.28470809       2.22517124      14.34907163        1       0.17996976      -0.44380325       0.02557470      -0.02149659
Cu       3.85409307       2.22518508      14.34928516        1       0.01180574      -0.12757142       0.32656250      -0.06003617
Cu       6.42349021       2.22507450      14.34904494        1      -0.10685981      -0.12298858       0.35498150      -0.10225070
Cu       2.56959011       4.45037276      14.34913478        1       0.37473352      -0.05125059       0.25093209       0.07702083
Cu       5.13896751       4.45026038      14.34907842        1      -0.14697581       0.15588707       0.27435767      -0.09191762
Cu       7.70816084       4.45028686      14.34912297        1      -0.59738626       0.04931127      -0.34219615       0.22125133
O        8.81919492       4.52972877      16.03247924        0     239.04501877     230.04239669     -42.40275327      -0.46873568
C        7.80572271       3.55444861      16.21232597        0    -238.98107353    -229.96478127      42.27210634       0.11101309
H        6.95890697       3.92038220      16.79664712        0      -0.12141202       0.05498497       0.08591827       0.05919716
H        8.20483711       2.62575396      16.62339727        0       0.05637284      -0.13552330       0.05301814       0.06690080
H        8.48767891       4.25864362      17.08529595        0      -0.00303797       0.00345304      -0.01934504       0.42597832
