37
Lattice="7.708127040155146 0.0 0.0 3.854063520077573 6.675433832372109 0.0 0.0 0.0 22.29365937364323" Properties=species:S:1:pos:R:3:tags:I:1:forces:R:3:charge:R:1 energy=-4491.2846859202955 free_energy=-4491.2846859202955 stress="-0.01330345819319687 7.636850125462916e-07 2.9886517094804753e-07 7.636850125462916e-07 -0.01330326329090473 1.501131442268101e-07 2.9886517094804753e-07 1.501131442268101e-07 -0.014551937174745516" dipole="-0.0853012942231624 -0.03769377162862825 -0.12638911724686738" pbc="T T F"
Cu       0.00000000       0.00000000       8.00000000        4       0.02042910      -0.06016325      -0.29731749       0.01140649
Cu       2.56937568       0.00000000       8.00000000        4      -0.02038691      -0.06016885      -0.29735180       0.01140175
Cu       5.13875136       0.00000000       8.00000000        4      -0.00004627       0.00001981      -0.26909598      -0.00253318
Cu       1.28468784       2.22514461       8.00000000        4       0.00001416      -0.00001535      -0.31368716      -0.00837270
Cu       3.85406352       2.22514461       8.00000000        4       0.04189329       0.04775259      -0.29733328       0.01140473
Cu       6.42343920       2.22514461       8.00000000        4      -0.04191323       0.04775581      -0.29732207       0.01141008
Cu       2.56937568       4.45028922       8.00000000        4       0.06233895       0.01238313      -0.29729945       0.01141079
Cu       5.13875136       4.45028922       8.00000000        4      -0.00000961       0.00000354      -0.38969887      -0.03660369
Cu       7.70812704       4.45028922       8.00000000        4      -0.06233538       0.01243796      -0.29732285       0.01140970
Cu       1.28468784       0.74171487      10.09788646        3       0.00003099       0.05094604      -0.01988290      -0.00769102
Cu       3.85406352       0.74171487      10.09788646        3      -0.00632602       0.00363417      -0.02110799      -0.00171187
Cu       6.42343920       0.74171487      10.09788646        3       0.00626459       0.00362956      -0.02115010      -0.00170404
Cu       2.56937568       2.96685948      10.09788646        3      -0.04414160      -0.02547344      -0.01979894      -0.00769025
Cu       5.13875136       2.96685948      10.09788646        3      -0.00003399       0.02408252      -0.05817111       0.00287564
Cu       7.70812704       2.96685948      10.09788646        3       0.04419314      -0.02544632      -0.01990680      -0.00769246
Cu       3.85406352       5.19200409      10.09788646        3       0.02085485      -0.01207122      -0.05814492       0.00287682
Cu       6.42343920       5.19200409      10.09788646        3      -0.02085232      -0.01202528      -0.05818741       0.00287375
Cu       8.99281488       5.19200409      10.09788646        3      -0.00003204      -0.00728932      -0.02108038      -0.00170625
Cu      -0.00001456       1.48341895      12.22216237        2       0.02571651       0.01493175       0.12138519      -0.00232149
Cu       2.56938632       1.48343972      12.22228812        2      -0.02576683       0.01479315       0.12116122      -0.00231831
Cu       5.13868200       1.48341490      12.22229490        2       0.00023904      -0.01129082       0.10390635      -0.00417670
Cu       1.28472730       3.70860469      12.22229670        2      -0.00021617      -0.02968728       0.12112053      -0.00231650
Cu       3.85404919       3.70853617      12.22226661        2       0.03729955       0.02162554       0.08442245      -0.00487614
Cu       6.42343137       3.70855859      12.22219237        2      -0.03701390       0.02149020       0.08451938      -0.00486573
Cu       2.56933175       5.93372331      12.22226822        2      -0.00975396       0.00572968       0.10396900      -0.00417360
Cu       5.13873976       5.93371007      12.22221793        2       0.00001242      -0.04293432       0.08444281      -0.00487098
Cu       7.70811165       5.93376676      12.22227910        2       0.00979173       0.00541699       0.10397714      -0.00417905
Cu       0.00003176       0.00005032      14.34901118        1      -0.05243628       0.10138887       0.26040485       0.00717248
Cu       2.56930125       0.00001804      14.34916312        1       0.05268279       0.10163327       0.26024552       0.00715662
Cu       5.13864853       0.00002580      14.34922433        1       0.00037680      -0.00016359       0.27501573      -0.01727962
Cu       1.28470809       2.22517124      14.34907163        1       0.00011941       0.00018117       0.26452484      -0.01131363
Cu       3.85409307       2.22518508      14.34928516        1      -0.06185314      -0.09615751       0.25997010       0.00714935
Cu       6.42349021       2.22507450      14.34904494        1       0.06172825      -0.09594968       0.26034223       0.00716846
Cu       2.56959011       4.45037276      14.34913478        1      -0.11474217      -0.00564275       0.26024495       0.00716883
Cu       5.13896751       4.45026038      14.34907842        1      -0.00059689       0.00007664       0.03046035      -0.00922867
Cu       7.70816084       4.45028686      14.34912297        1       0.11444362      -0.00542129       0.26020222       0.00716354
H        5.13897708       4.45025572      15.81959188        0       0.00002751      -0.00001213      -0.00645533       0.02757687
