37
Lattice="7.708127040155146 0.0 0.0 3.854063520077573 6.675433832372109 0.0 0.0 0.0 22.29365937364323" Properties=species:S:1:pos:R:3:tags:I:1:forces:R:3:charge:R:1 energy=-4491.280018034029 free_energy=-4491.280018034029 stress="-0.013291527250830487 7.665751102964911e-07 2.9809749907618874e-07 7.665751102964911e-07 -0.013291332978482544 1.5063276090067578e-07 2.9809749907618874e-07 1.5063276090067578e-07 -0.014110493477822532" dipole="-0.08978389901495558 -0.04101989737064528 -0.12777712555894735" pbc="T T F"
Cu       0.00000000       0.00000000       8.00000000        4       0.01975481      -0.06008927      -0.29746095       0.01133144
Cu       2.56937568       0.00000000       8.00000000        4      -0.01971260      -0.06009454      -0.29749508       0.01132677
Cu       5.13875136       0.00000000       8.00000000        4      -0.00004630       0.00001977      -0.26949761      -0.00262455
Cu       1.28468784       2.22514461       8.00000000        4       0.00001369      -0.00001531      -0.31336572      -0.00813838
Cu       3.85406352       2.22514461       8.00000000        4       0.04216625       0.04713147      -0.29747657       0.01132974
Cu       6.42343920       2.22514461       8.00000000        4      -0.04218575       0.04713462      -0.29746529       0.01133509
Cu       2.56937568       4.45028922       8.00000000        4       0.06193780       0.01293026      -0.29744287       0.01133574
Cu       5.13875136       4.45028922       8.00000000        4      -0.00001021       0.00000376      -0.38907581      -0.03619704
Cu       7.70812704       4.45028922       8.00000000        4      -0.06193365       0.01298460      -0.29746604       0.01133468
Cu       1.28468784       0.74171487      10.09788646        3       0.00003117       0.05008626      -0.01991288      -0.00754019
Cu       3.85406352       0.74171487      10.09788646        3      -0.00607735       0.00349060      -0.02089901      -0.00172163
Cu       6.42343920       0.74171487      10.09788646        3       0.00601583       0.00348609      -0.02094087      -0.00171382
Cu       2.56937568       2.96685948      10.09788646        3      -0.04339694      -0.02504376      -0.01982913      -0.00753941
Cu       5.13875136       2.96685948      10.09788646        3      -0.00003416       0.02338419      -0.05841410       0.00272275
Cu       7.70812704       2.96685948      10.09788646        3       0.04344843      -0.02501630      -0.01993633      -0.00754162
Cu       3.85406352       5.19200409      10.09788646        3       0.02025038      -0.01172225      -0.05838776       0.00272396
Cu       6.42343920       5.19200409      10.09788646        3      -0.02024751      -0.01167595      -0.05843039       0.00272091
Cu       8.99281488       5.19200409      10.09788646        3      -0.00003223      -0.00700208      -0.02087127      -0.00171603
Cu      -0.00001456       1.48341895      12.22216237        2       0.02548625       0.01479889       0.12208040      -0.00261366
Cu       2.56938632       1.48343972      12.22228812        2      -0.02553643       0.01466020       0.12185656      -0.00261038
Cu       5.13868200       1.48341490      12.22229490        2       0.00023891      -0.01145543       0.10483712      -0.00411289
Cu       1.28472730       3.70860469      12.22229670        2      -0.00021627      -0.02942135       0.12181569      -0.00260868
Cu       3.85404919       3.70853617      12.22226661        2       0.03629172       0.02104379       0.08713698      -0.00430316
Cu       6.42343137       3.70855859      12.22219237        2      -0.03600663       0.02090856       0.08723522      -0.00429268
Cu       2.56933175       5.93372331      12.22226822        2      -0.00989631       0.00581179       0.10489960      -0.00410990
Cu       5.13873976       5.93371007      12.22221793        2       0.00001217      -0.04177084       0.08715747      -0.00429800
Cu       7.70811165       5.93376676      12.22227910        2       0.00993433       0.00549935       0.10490805      -0.00411527
Cu       0.00003176       0.00005032      14.34901118        1      -0.05214476       0.10068359       0.26130775       0.00801333
Cu       2.56930125       0.00001804      14.34916312        1       0.05239123       0.10092671       0.26114947       0.00799794
Cu       5.13864853       0.00002580      14.34922433        1       0.00037659      -0.00016354       0.27499475      -0.01816558
Cu       1.28470809       2.22517124      14.34907163        1       0.00011939       0.00018109       0.26455117      -0.01224203
Cu       3.85409307       2.22518508      14.34928516        1      -0.06138702      -0.09555182       0.26087428       0.00799041
Cu       6.42349021       2.22507450      14.34904494        1       0.06126270      -0.09534409       0.26124549       0.00800968
Cu       2.56959011       4.45037276      14.34913478        1      -0.11398488      -0.00554232       0.26114869       0.00800993
Cu       5.13896751       4.45026038      14.34907842        1      -0.00059492       0.00007632       0.33392239      -0.01382458
Cu       7.70816084       4.45028686      14.34912297        1       0.11368582      -0.00532085       0.26110633       0.00800487
H        5.13897216       4.45025794      15.84671833        0       0.00002644      -0.00001220      -0.32785973       0.02784226
