41
Lattice="7.708127040155146 0.0 0.0 3.854063520077573 6.675433832372109 0.0 0.0 0.0 22.29365937364323" Properties=species:S:1:pos:R:3:tags:I:1:forces:R:3:charge:R:1 energy=-4530.837705024318 free_energy=-4530.837705024318 stress="-0.01479459863551321 0.001980458720319234 0.0015916026740930914 0.001980458720319234 -0.016148748626710466 -0.00013137321814610912 0.0015916026740930914 -0.00013137321814610912 -0.018184925095510417" dipole="0.8597386411544137 0.889356139953767 2.1054296312188074" pbc="T T F"
Cu       0.00000000      -0.00000000       8.00000000        4      -0.05782049      -0.04444809      -0.31306616       0.00283656
Cu       2.56937568      -0.00000000       8.00000000        4       0.03804540      -0.01569277      -0.31975220      -0.01110717
Cu       5.13875136       0.00000000       8.00000000        4       0.00724372      -0.02720860      -0.34817008      -0.01440468
Cu       1.28468784       2.22514461       8.00000000        4      -0.08407053      -0.00016330      -0.28360750       0.01697308
Cu       3.85406352       2.22514461       8.00000000        4       0.09417078      -0.03182322      -0.27451747       0.00589271
Cu       6.42343920       2.22514461       8.00000000        4      -0.02207267       0.02072196      -0.34313627      -0.02580682
Cu       2.56937568       4.45028922       8.00000000        4      -0.00423920       0.11968493      -0.28381355      -0.01179217
Cu       5.13875136       4.45028922       8.00000000        4      -0.01809457      -0.02620852      -0.28718666      -0.02624889
Cu       7.70812704       4.45028922       8.00000000        4       0.00969144       0.00099335      -0.29944973      -0.00171398
Cu       1.28468784       0.74171487      10.09788646        3       0.05679948       0.02529344       0.00690462      -0.02260312
Cu       3.85406352       0.74171487      10.09788646        3      -0.04083090      -0.01320421      -0.01860914      -0.00693868
Cu       6.42343920       0.74171487      10.09788646        3       0.01390066       0.01846744      -0.01055711      -0.00819368
Cu       2.56937568       2.96685948      10.09788646        3      -0.01657251      -0.04768006      -0.03826916      -0.00692508
Cu       5.13875136       2.96685948      10.09788646        3       0.03032208      -0.03532460      -0.13752501       0.04078928
Cu       7.70812704       2.96685948      10.09788646        3       0.01708134      -0.00782190      -0.03966158      -0.01536419
Cu       3.85406352       5.19200409      10.09788646        3      -0.00060586       0.02248904      -0.09382148       0.03297305
Cu       6.42343920       5.19200409      10.09788646        3       0.05071482       0.04521729      -0.06358320       0.01635171
Cu       8.99281488       5.19200409      10.09788646        3      -0.01610036       0.00495827      -0.01007566      -0.00057696
Cu      -0.00001456       1.48341895      12.22216237        2      -0.02933923      -0.00047121       0.04558741       0.03813767
Cu       2.56938632       1.48343972      12.22228812        2      -0.02203418      -0.03670138       0.10039198       0.03040637
Cu       5.13868200       1.48341490      12.22229490        2       0.00986379      -0.02822987       0.01292899      -0.02278004
Cu       1.28472730       3.70860469      12.22229670        2      -0.03508560       0.02232969       0.04799877       0.02219383
Cu       3.85404919       3.70853617      12.22226661        2      -0.02291053       0.05055059       0.02268335      -0.03474988
Cu       6.42343137       3.70855859      12.22219237        2       0.00678153       0.00161803      -0.00651529      -0.03190832
Cu       2.56933175       5.93372331      12.22226822        2      -0.00717698      -0.01287010      -0.00251056      -0.02851029
Cu       5.13873976       5.93371007      12.22221793        2      -0.04043068       0.02641458       0.05258862      -0.03941042
Cu       7.70811165       5.93376676      12.22227910        2       0.00097275       0.00073623       0.03794693       0.00829036
Cu       0.00003176       0.00005032      14.34901118        1      -0.03973527       0.15230896       0.31714297      -0.06048861
Cu       2.56930125       0.00001804      14.34916312        1       0.10382688       0.21333118       0.35574213      -0.10216213
Cu       5.13864853       0.00002580      14.34922433        1      -0.02238397      -0.15588591       0.38186352      -0.05428810
Cu       1.28470809       2.22517124      14.34907163        1       0.01864420      -0.12817270       0.32277425      -0.05314610
Cu       3.85409307       2.22518508      14.34928516        1      -0.31111595      -0.37461577       0.01903984      -0.01474531
Cu       6.42349021       2.22507450      14.34904494        1       0.08317692      -0.08338077       0.37652811      -0.05796564
Cu       2.56959011       4.45037276      14.34913478        1      -0.26102378       0.07156697       0.24268007      -0.02477288
Cu       5.13896751       4.45026038      14.34907842        1       0.35242276       0.79177340      -2.20936000       0.37426370
Cu       7.70816084       4.45028686      14.34912297        1       0.41913407       0.14659356       0.22629516      -0.08931372
O        4.73570395       4.16969115      16.01151817        0    -120.78823271     139.22422754     -31.85497989      -0.46920343
C        5.65137878       3.11431273      16.25309257        0     120.63241597    -139.23560273      31.73174870       0.09614367
H        5.17322552       2.27857948      16.76821285        0      -0.03087740      -0.05390664       0.03634233       0.06656483
H        6.55476527       3.44906043      16.76551258        0       0.19225828       0.07298396       0.10776273       0.05648025
H        5.11128885       3.98786178      17.06970322        0      -0.00576532      -0.00508104      -0.01104573       0.42682321
