31
Lattice="8.493 0.0 0.0 4.2465 6.005457892617349 0.0 0.0 0.0 20.003638595078232" Properties=species:S:1:pos:R:3:tags:I:1:forces:R:3:charge:R:1 charge=0 spin=0 energy=-2459.080563548147 free_energy=-2459.080563548147 stress="0.015288749619025535 0.0002537752172270142 0.003191735285758769 0.0002537752172270142 0.0013501638091543747 0.000541809470024811 0.003191735285758769 0.000541809470024811 -0.009471496371274594" dipole="-0.03705163251186512 0.5082280589636824 2.120788516754456" pbc="T T T"
Fe       0.00000000       0.00000000       8.00000000        3       0.06418687       0.00859493      -0.02393027      -0.00751193
Fe       2.83100000       0.00000000       8.00000000        3      -0.04596802      -0.04580938       0.04033387      -0.00693184
Fe       5.66200000       0.00000000       8.00000000        3       0.08701302       0.03029187      -0.01871394      -0.00705935
Fe       1.41550000       2.00181930       8.00000000        3      -0.01695085       0.00948820       0.02059354      -0.00728749
Fe       4.24650000       2.00181930       8.00000000        3       0.01908248       0.02601983      -0.04989596      -0.00593842
Fe       7.07750000       2.00181930       8.00000000        3      -0.01723393       0.02011377      -0.00706457      -0.00660695
Fe       2.83100000       4.00363860       8.00000000        3      -0.10560940       0.00732031       0.02170575      -0.00588251
Fe       5.66200000       4.00363860       8.00000000        3       0.00603416      -0.01250123      -0.13103817      -0.00605613
Fe       8.49300000       4.00363860       8.00000000        3       0.09611779      -0.00030308      -0.08057996      -0.00674031
Fe       0.00000000       2.00181930      10.00181930        2      -0.63779042      -0.08636157      -0.14374959      -0.00037868
Fe       2.83100000       2.00181930      10.00181930        2       0.57094502       0.06741287       0.04614613      -0.00064252
Fe       5.66200000       2.00181930      10.00181930        2      -0.04475896       0.02427320      -0.83177590       0.00179559
Fe       1.41550000       4.00363860      10.00181930        2      -0.07414670      -0.32886551      -0.04896725      -0.00029535
Fe       4.24650000       4.00363860      10.00181930        2       0.45611302       0.09846656      -1.08026799       0.00050986
Fe       7.07750000       4.00363860      10.00181930        2      -0.56200971      -0.01654819      -1.06716685       0.00144933
Fe       2.83100000       6.00545789      10.00181930        2      -0.60149069      -0.02559470      -2.09848485       0.00932454
Fe       5.66200000       6.00545789      10.00181930        2       0.08015206       0.18873905       0.04947888      -0.00029081
Fe       8.49300000       6.00545789      10.00181930        2       0.58271879      -0.04452011      -0.95568509      -0.00131189
Fe      -0.26518266       0.20945978      11.83722203        1       3.30354006      -0.66752093       0.26474393       0.05624763
Fe       3.10512793       0.18549752      11.83541618        1      -0.41958179       0.20434333       0.48690167      -0.01151004
Fe       5.66127124      -0.56860039      11.83522456        1       0.25405508       0.06780177       1.20808954       0.04401601
Fe       1.41585411       2.01518229      11.75852330        1       0.05914244      -0.12882778       0.37756841      -0.00946280
Fe       4.47368163       1.98069598      12.10686849        1       0.78154595       0.13855004       2.13261765       0.00883138
Fe       6.85044192       1.98487394      12.10678346        1      -0.99463339       1.00205510       1.72427719       0.01759104
Fe       3.11615338       3.77708131      11.83899590        1      -0.28110191      -0.34123147       0.47203707       0.02905614
Fe       5.66167640       4.54490648      11.82915865        1       0.33199142       0.11723789      -0.06311816       0.01251397
Fe       8.20150754       3.79684420      11.83610770        1       0.26478843       0.05527168       0.63791237      -0.01022943
N        5.67441178       1.98066131      13.61356182        0       0.06587904       0.17847609       0.76297962      -0.35766053
H        6.40834999       0.92437352      13.25586995        0       0.00905923      -0.00047281       0.00710346       0.38819556
H        5.76487100       2.20123178      14.61299585        0      -0.07854721      -0.15956220      -0.73918631       0.25709320
O        7.04932941       0.01927959      12.82025357        0      -0.00079984      -0.01061288      -0.01012602      -0.37482725
