28
Lattice="8.493 0.0 0.0 4.2465 6.005457892617349 0.0 0.0 0.0 20.003638595078232" Properties=species:S:1:pos:R:3:tags:I:1:forces:R:3 charge=0 spin=0 energy=-189.9829192820173 free_energy=-189.9829192820173 stress="0.04287678748369217 -0.0015852776123210788 -3.3259127576457104e-06 -0.0015852776123210788 0.030857505276799202 5.772822260041721e-05 -3.3259127576457104e-06 5.772822260041721e-05 0.00894069205969572" pbc="T T T"
Fe       0.00000000       0.00000000       8.00000000        3       0.00100007      -0.00265704       0.36292997
Fe       2.83100000       0.00000000       8.00000000        3       0.12496132       0.01762886       0.51424575
Fe       5.66200000       0.00000000       8.00000000        3      -0.11093323      -0.01515862       0.53781629
Fe       1.41550000       2.00181930       8.00000000        3       0.00044626      -0.00085786       0.42130029
Fe       4.24650000       2.00181930       8.00000000        3       0.15276784       0.02000874       0.60140157
Fe       7.07750000       2.00181930       8.00000000        3      -0.15272242      -0.02243110       0.60127848
Fe       2.83100000       4.00363860       8.00000000        3       0.00054671       0.00162144       0.36309904
Fe       5.66200000       4.00363860       8.00000000        3       0.11013087       0.01315574       0.53891957
Fe       8.49300000       4.00363860       8.00000000        3      -0.12562437      -0.01992698       0.51380676
Fe       0.00000000       2.00181930      10.00181930        2      -0.50446713      -0.60711336      -0.73855454
Fe       2.83100000       2.00181930      10.00181930        2       0.50533956       0.62358117      -0.73020393
Fe       5.66200000       2.00181930      10.00181930        2      -0.00162852       0.00069698       0.09653850
Fe       1.41550000       4.00363860      10.00181930        2      -0.32651970      -0.45310405      -0.86708796
Fe       4.24650000       4.00363860      10.00181930        2       0.38310534       0.65378290      -1.02817261
Fe       7.07750000       4.00363860      10.00181930        2       0.02998403      -0.05278189       0.41423342
Fe       2.83100000       6.00545789      10.00181930        2      -0.38487387      -0.63821417      -1.04086125
Fe       5.66200000       6.00545789      10.00181930        2       0.32940027       0.46859664      -0.85393775
Fe       8.49300000       6.00545789      10.00181930        2      -0.03311695       0.05412440       0.41373271
Fe      -0.03039002       0.11711612      11.85360620        1      -0.01303436      -0.02009659      -0.03216575
Fe       2.49218148      -0.43338985      11.85541148        1       0.03517543      -0.00138058       0.00049304
Fe       6.04546309       0.28245711      11.95121313        1      -0.03675560       0.01811583      -0.01369860
Fe       1.41570697       1.99602541      11.87680224        1       0.00130710      -0.01155025      -0.02957445
Fe       3.89512763       1.53037084      11.94306765        1       0.00685232      -0.03400758      -0.02136707
Fe       7.42903651       2.47197468      11.94259789        1      -0.00602049       0.03077012      -0.02150066
Fe       2.86033193       3.87686389      11.85342101        1       0.01223991       0.00454411      -0.03034644
Fe       5.27908717       3.71885338      11.95141192        1       0.03807670      -0.02563936      -0.01252132
Fe       8.83170358       4.43478970      11.85486591        1      -0.03595206      -0.00315485      -0.00052091
N        5.66262123       2.00016820      12.49047814        0       0.00031454       0.00144714       0.04071823
