29
Lattice="8.493 0.0 0.0 4.2465 6.005457892617349 0.0 0.0 0.0 20.003638595078232" Properties=species:S:1:pos:R:3:tags:I:1:forces:R:3:charge:R:1 charge=0 spin=0 energy=-2354.6927321398516 free_energy=-2354.6927321398516 stress="0.029785470132391693 -0.0009643591963900763 -0.0015035778015467603 -0.0009643591963900763 0.001463378767126219 -0.0008518531135431748 -0.0015035778015467603 -0.0008518531135431748 -0.006949868659942362" dipole="-0.2348679879176768 0.13122423221701907 0.7343618447139039" pbc="T T T"
Fe       0.00000000       0.00000000       8.00000000        3      -0.00435782       0.08303906      -0.09499179      -0.00316288
Fe       2.83100000       0.00000000       8.00000000        3       0.01264232       0.07548226      -0.08895626      -0.00310241
Fe       5.66200000       0.00000000       8.00000000        3      -0.00980414       0.11832608      -0.11623140      -0.00347350
Fe       1.41550000       2.00181930       8.00000000        3      -0.01046067       0.06797941      -0.11811912      -0.00313089
Fe       4.24650000       2.00181930       8.00000000        3       0.02237721       0.07938090      -0.11836948      -0.00362868
Fe       7.07750000       2.00181930       8.00000000        3      -0.02173180       0.00440270      -0.05953410      -0.00372325
Fe       2.83100000       4.00363860       8.00000000        3      -0.04535471       0.15052484      -0.17247286      -0.00352957
Fe       5.66200000       4.00363860       8.00000000        3      -0.03491451      -0.02091521      -0.01774076      -0.00313905
Fe       8.49300000       4.00363860       8.00000000        3       0.00683825       0.01085633      -0.08173184      -0.00325548
Fe       0.00000000       2.00181930      10.00181930        2       0.06464499       0.00863726       0.18056721       0.00281931
Fe       2.83100000       2.00181930      10.00181930        2       0.05891730      -0.04304629      -0.15855094       0.00423926
Fe       5.66200000       2.00181930      10.00181930        2      -0.09368168       0.31456513       0.02384198       0.00404085
Fe       1.41550000       4.00363860      10.00181930        2       0.19381579       0.08276052      -0.10049436       0.00194162
Fe       4.24650000       4.00363860      10.00181930        2      -0.16676674       0.25364252      -0.26841845       0.00153982
Fe       7.07750000       4.00363860      10.00181930        2       0.01584684      -0.19450411      -0.21408644       0.01387910
Fe       2.83100000       6.00545789      10.00181930        2      -0.06667773       0.10003235       0.02009835       0.00434711
Fe       5.66200000       6.00545789      10.00181930        2       0.00444966      -0.42807844      -0.21516056       0.00106068
Fe       8.49300000       6.00545789      10.00181930        2       0.06931786      -0.41195385      -0.09773961       0.00303894
Fe       0.12726763       0.56517577      11.84049183        1      -0.14099894       0.16123863      -0.15408470      -0.00949630
Fe       2.84603649       0.57870060      11.81307720        1       0.14297532      -0.13888093       0.28039470       0.00785703
Fe       5.44068274       0.67079957      11.88013672        1      -0.04785178      -0.14281336      -0.03217308       0.00505191
Fe       1.51521491       2.57650792      11.83905801        1       0.11397640      -0.07844040       0.17051209       0.00353113
Fe       4.05513961       2.63868269      11.86595073        1      -0.01533218      -0.17267445       0.12429627       0.00578246
Fe       7.08804888       2.40112033      11.85954878        1      -0.15511303       1.38108650       1.26815310       0.05172525
Fe       2.68660770       4.69551046      11.88982110        1      -0.18626338      -0.02737322      -0.11208823      -0.00427746
Fe       5.56870126       4.57582606      11.89265766        1      -0.28276970      -3.50192420      -3.27790044      -0.00270196
Fe       8.63823459       4.57932554      11.90274250        1      -0.70717993      -0.11898628       1.05818639       0.04800505
O        7.00666192       4.07057320      13.08267917        0       0.00567114       0.02643576      -0.02933255      -0.36873139
H        5.91253195       5.15894865      12.97197569        0       0.00064547       0.02382594      -0.00095485       0.25649333
