28
Lattice="8.493 0.0 0.0 4.2465 6.005457892617349 0.0 0.0 0.0 20.003638595078232" Properties=species:S:1:pos:R:3:tags:I:1:forces:R:3 charge=0 spin=0 energy=-182.59752802560556 free_energy=-182.59752802560556 stress="0.04660700634121895 -8.236632857006043e-05 5.462825303226282e-09 -8.236632857006043e-05 0.032458577305078506 3.767067990878559e-09 5.462825303226282e-09 3.767067990878559e-09 0.010900736786425114" pbc="T T T"
Fe       0.00000000       0.00000000       8.00000000        3      -0.00150150      -0.00775231       0.53020352
Fe       2.83100000       0.00000000       8.00000000        3      -0.00012969       0.01737715       0.53651887
Fe       5.66200000       0.00000000       8.00000000        3      -0.01057197      -0.01464230       0.53178984
Fe       1.41550000       2.00181930       8.00000000        3      -0.02431794      -0.00400901       0.57540476
Fe       4.24650000       2.00181930       8.00000000        3       0.02431772       0.00400924       0.57540399
Fe       7.07750000       2.00181930       8.00000000        3      -0.00000016       0.00000019       0.57549012
Fe       2.83100000       4.00363860       8.00000000        3       0.00013051      -0.01737663       0.53651959
Fe       5.66200000       4.00363860       8.00000000        3       0.00150141       0.00775222       0.53020221
Fe       8.49300000       4.00363860       8.00000000        3       0.01057227       0.01464228       0.53178859
Fe       0.00000000       2.00181930      10.00181930        2       0.01556199       0.00424440      -0.44729492
Fe       2.83100000       2.00181930      10.00181930        2      -0.00000030       0.00000177      -0.51541883
Fe       5.66200000       2.00181930      10.00181930        2      -0.01556447      -0.00424677      -0.44729623
Fe       1.41550000       4.00363860      10.00181930        2      -0.02016281       0.02965926      -0.47761786
Fe       4.24650000       4.00363860      10.00181930        2       0.01191197       0.01936918      -0.47580430
Fe       7.07750000       4.00363860      10.00181930        2       0.00874799      -0.05498111      -0.59703183
Fe       2.83100000       6.00545789      10.00181930        2      -0.00875000       0.05497816      -0.59702933
Fe       5.66200000       6.00545789      10.00181930        2      -0.01190809      -0.01936789      -0.47580114
Fe       8.49300000       6.00545789      10.00181930        2       0.02016325      -0.02965737      -0.47761184
Fe       0.00126333       0.00134874      11.86643021        1       0.00606428       0.04468813      -0.04422240
Fe       2.83105540       0.00184082      11.86745130        1       0.00171340       0.01031066      -0.02563475
Fe       5.66195461       0.00155037      11.86571648        1       0.01676366       0.04594762      -0.05114897
Fe       1.42161294       2.00200201      11.86652562        1       0.09872389       0.00213309      -0.03542675
Fe       4.24038694       2.00163671      11.86652556        1      -0.09872286      -0.00213535      -0.03542649
Fe       7.07749996       2.00181940      11.91556658        1       0.00000056      -0.00000006       0.21601315
Fe       2.83094495       4.00179783      11.86745105        1      -0.00171268      -0.01030965      -0.02563390
Fe       5.66073654       4.00229019      11.86643015        1      -0.00606668      -0.04468740      -0.04422214
Fe       8.49304544       4.00208828      11.86571640        1      -0.01676322      -0.04594810      -0.05114180
H        7.07750054       2.00182026      13.47541035        0      -0.00000053       0.00000054      -0.31557167
