28
Lattice="8.493 0.0 0.0 4.2465 6.005457892617349 0.0 0.0 0.0 20.003638595078232" Properties=species:S:1:pos:R:3:tags:I:1:forces:R:3 charge=0 spin=0 energy=-186.31507185569023 free_energy=-186.31507185569023 stress="0.04435524344444275 -0.00018244748935103416 -6.787008146602602e-07 -0.00018244748935103416 0.029558079317212105 5.844733550475212e-07 -6.787008146602602e-07 5.844733550475212e-07 0.009177181869745255" pbc="T T T"
Fe       0.00000000       0.00000000       8.00000000        3      -0.00715250      -0.00498899       0.36322168
Fe       2.83100000       0.00000000       8.00000000        3      -0.00498568       0.05671505       0.68486756
Fe       5.66200000       0.00000000       8.00000000        3       0.02924548      -0.02415168       0.39746311
Fe       1.41550000       2.00181930       8.00000000        3      -0.18814833       0.04540682       0.59771228
Fe       4.24650000       2.00181930       8.00000000        3       0.18813790      -0.04544643       0.59768027
Fe       7.07750000       2.00181930       8.00000000        3       0.00000754      -0.00002916       0.58522081
Fe       2.83100000       4.00363860       8.00000000        3       0.00502257      -0.05676498       0.68487173
Fe       5.66200000       4.00363860       8.00000000        3       0.00719305       0.00492670       0.36325914
Fe       8.49300000       4.00363860       8.00000000        3      -0.02935483       0.02410463       0.39732078
Fe       0.00000000       2.00181930      10.00181930        2      -0.58217216       0.00394416       0.02152331
Fe       2.83100000       2.00181930      10.00181930        2      -0.00008701       0.00039600      -1.92664695
Fe       5.66200000       2.00181930      10.00181930        2       0.58223730      -0.00395458       0.02141120
Fe       1.41550000       4.00363860      10.00181930        2      -0.32071877      -0.26382664      -0.39796543
Fe       4.24650000       4.00363860      10.00181930        2       0.32201433      -0.24280459      -0.25567698
Fe       7.07750000       4.00363860      10.00181930        2      -0.00862527       0.57893133      -0.73860461
Fe       2.83100000       6.00545789      10.00181930        2       0.00833015      -0.57912815      -0.73880380
Fe       5.66200000       6.00545789      10.00181930        2      -0.32164294       0.24320400      -0.25552052
Fe       8.49300000       6.00545789      10.00181930        2       0.32050368       0.26390907      -0.39703017
Fe      -0.13344440       0.38390398      11.85642765        1      -0.00787075       0.00400436      -0.00380505
Fe       2.84677533      -0.33092509      11.75935599        1      -0.00952209      -0.00120979       0.00968282
Fe       5.78010585       0.38603627      11.85828382        1      -0.01050387      -0.00581756      -0.00323726
Fe       1.61731286       1.97990060      11.82272608        1      -0.00943172      -0.00116158      -0.00243388
Fe       4.04470224       2.02347040      11.82271317        1       0.00944929       0.00105887      -0.00244096
Fe       7.07760239       2.00186617      12.82188109        1       0.00010325      -0.00004450      -0.00648166
Fe       2.81505511       4.33442676      11.75931351        1       0.00939283       0.00113051       0.00967656
Fe       5.79543645       3.61959045      11.85643422        1       0.00793888      -0.00416457      -0.00376238
Fe       8.37505401       3.61767083      11.85824638        1       0.01058001       0.00583807      -0.00324834
O        7.07755278       2.00193303      14.42028408        0       0.00005967      -0.00007674       0.00174622
