41
Lattice="7.708127040155146 0.0 0.0 3.854063520077573 6.675433832372109 0.0 0.0 0.0 22.29365937364323" Properties=species:S:1:pos:R:3:tags:I:1:forces:R:3:charge:R:1 energy=-4703.5110000826635 free_energy=-4703.5110000826635 stress="-0.012379298361594808 -4.998060718302911e-05 5.166801630501684e-05 -4.998060718302911e-05 -0.014777783335131855 1.760636545157689e-06 5.166801630501684e-05 1.760636545157689e-06 -0.01519612541362662" dipole="-0.20299526925294573 -0.8286325377655713 1.6963038367444636" pbc="T T F"
Cu       0.00000000       0.00000000       8.00000000        4      -0.05157540       0.02429174      -0.27799015      -0.01004396
Cu       2.56937568       0.00000000       8.00000000        4      -0.00407706       0.03752237      -0.26970903       0.01343029
Cu       5.13875136       0.00000000       8.00000000        4       0.05634476       0.02113613      -0.28047037      -0.00663816
Cu       1.28468784       2.22514461       8.00000000        4       0.04076868       0.03685251      -0.33973951      -0.01529697
Cu       3.85406352       2.22514461       8.00000000        4      -0.03841479       0.04540690      -0.34377839      -0.01644389
Cu       6.42343920       2.22514461       8.00000000        4      -0.00160955       0.03717546      -0.32286989      -0.01266425
Cu       2.56937568       4.45028922       8.00000000        4       0.00219259      -0.06677413      -0.32975222      -0.01210042
Cu       5.13875136       4.45028922       8.00000000        4       0.02967672      -0.08392102      -0.32026488      -0.00097755
Cu       7.70812704       4.45028922       8.00000000        4      -0.03102583      -0.07991083      -0.32595787      -0.00256586
Cu       1.28468784       0.74171487      10.09788646        3       0.02873770       0.04203447      -0.05539200       0.00934572
Cu       3.85406352       0.74171487      10.09788646        3      -0.02744706       0.03799136      -0.03557769       0.00781078
Cu       6.42343920       0.74171487      10.09788646        3      -0.00310326      -0.08357394      -0.11619772       0.04262746
Cu       2.56937568       2.96685948      10.09788646        3      -0.00168685       0.02381383       0.03059856      -0.00431319
Cu       5.13875136       2.96685948      10.09788646        3      -0.05268827       0.04775655      -0.04337784      -0.00553589
Cu       7.70812704       2.96685948      10.09788646        3       0.05207537       0.05747464      -0.03857486      -0.00425152
Cu       3.85406352       5.19200409      10.09788646        3      -0.07292961      -0.01293035      -0.03578420       0.00195697
Cu       6.42343920       5.19200409      10.09788646        3       0.00916234      -0.02151519      -0.03702675      -0.01282569
Cu       8.99281488       5.19200409      10.09788646        3       0.06118444      -0.01461248      -0.02758246      -0.00345293
Cu      -0.00001456       1.48341895      12.22216237        2       0.06755596      -0.01139525       0.08788517      -0.02879982
Cu       2.56938632       1.48343972      12.22228812        2      -0.00156338      -0.01316086       0.05111490       0.00671053
Cu       5.13868200       1.48341490      12.22229490        2      -0.05711034       0.00241864       0.10639749      -0.02596992
Cu       1.28472730       3.70860469      12.22229670        2       0.00903224      -0.01964866       0.04527586       0.00803021
Cu       3.85404919       3.70853617      12.22226661        2      -0.00652231      -0.02266560       0.05250442       0.00415204
Cu       6.42343137       3.70855859      12.22219237        2      -0.00213662       0.06883533       0.06224937       0.03077906
Cu       2.56933175       5.93372331      12.22226822        2       0.00325268      -0.03859960       0.13175776      -0.02893877
Cu       5.13873976       5.93371007      12.22221793        2       0.04403760      -0.01287936       0.11306917      -0.00288701
Cu       7.70811165       5.93376676      12.22227910        2      -0.04661401      -0.02138492       0.11012680      -0.00027026
Cu       0.00003176       0.00005032      14.34901118        1       0.13528675      -0.20470426       0.25549378       0.14530662
Cu       2.56930125       0.00001804      14.34916312        1      -0.00896887       0.04526444       0.30903769      -0.06884467
Cu       5.13864853       0.00002580      14.34922433        1      -0.11922883      -0.15441759       0.34370883       0.10971235
Cu       1.28470809       2.22517124      14.34907163        1       0.24957092       0.14759865       0.24570285      -0.06365178
Cu       3.85409307       2.22518508      14.34928516        1      -0.23361712       0.13567306       0.26794314      -0.05533406
Cu       6.42349021       2.22507450      14.34904494        1      -0.00873008       0.41352473       0.20126083       0.04254517
Cu       2.56959011       4.45037276      14.34913478        1      -0.00871293      -0.29539873       0.19146482      -0.02098998
Cu       5.13896751       4.45026038      14.34907842        1      -0.00962524      -0.05480493       0.32171575      -0.07927580
Cu       7.70816084       4.45028686      14.34912297        1       0.01919304      -0.00973005       0.32179520      -0.07234578
O        6.49850204       0.30639836      16.09044064        0       0.00144209      -0.00265820      -0.00924755      -0.46418076
C        6.57604943       1.58716072      16.78508353        0      -0.00648586      -0.01556964      -0.00480864       0.07880648
H        5.65929039       2.16847197      16.80804619        0      -0.00415476       0.00087648      -0.01710509       0.07538216
H        7.54214255       2.08288556      16.74938019        0      -0.00940879       0.00832151      -0.00369543       0.07396220
H        6.55205677       0.44331658      17.23276081        0      -0.00207705       0.00628679      -0.01419983       0.36804083
