41
Lattice="7.708127040155146 0.0 0.0 3.854063520077573 6.675433832372109 0.0 0.0 0.0 22.29365937364323" Properties=species:S:1:pos:R:3:tags:I:1:forces:R:3:charge:R:1 energy=-4703.619965178028 free_energy=-4703.619965178028 stress="-0.012975814362266087 0.0016078990597672396 -0.0006281289877806575 0.0016078990597672396 -0.017069303226763446 0.002217757027292778 -0.0006281289877806575 0.002217757027292778 -0.013903152647669293" dipole="-0.12134363771893791 -0.6310562396088999 2.0031295103926983" pbc="T T F"
Cu       0.00000000       0.00000000       8.00000000        4      -0.02597793      -0.03073731      -0.28182416      -0.01669965
Cu       2.56937568      -0.00000000       8.00000000        4      -0.00653979       0.03342467      -0.29938449       0.00183971
Cu       5.13875136      -0.00000000       8.00000000        4       0.02606937       0.02589018      -0.26273704       0.01352320
Cu       1.28468784       2.22514461       8.00000000        4       0.01836470       0.03461072      -0.29931113      -0.00303224
Cu       3.85406352       2.22514461       8.00000000        4      -0.01174407       0.05324340      -0.32479165      -0.01448356
Cu       6.42343920       2.22514461       8.00000000        4      -0.01313250       0.04438390      -0.31867363      -0.03142411
Cu       2.56937568       4.45028922       8.00000000        4       0.05562319      -0.04549321      -0.32304496      -0.01590225
Cu       5.13875136       4.45028922       8.00000000        4      -0.04286099      -0.06600576      -0.33249271      -0.00137355
Cu       7.70812704       4.45028922       8.00000000        4      -0.02072469      -0.07930538      -0.32516968      -0.00122482
Cu       1.28468784       0.74171487      10.09788646        3       0.02596070      -0.01102985      -0.04194701       0.01262845
Cu       3.85406352       0.74171487      10.09788646        3      -0.03905449      -0.01066345      -0.02151447      -0.00659367
Cu       6.42343920       0.74171487      10.09788646        3       0.03073319      -0.00789492      -0.12105898       0.04213990
Cu       2.56937568       2.96685948      10.09788646        3      -0.00361539       0.02054541       0.00124684      -0.00132544
Cu       5.13875136       2.96685948      10.09788646        3       0.03311288       0.02299888      -0.03802067       0.00855019
Cu       7.70812704       2.96685948      10.09788646        3      -0.00891974       0.04739458      -0.07323703       0.00285998
Cu       3.85406352       5.19200409      10.09788646        3      -0.01322071       0.02491983      -0.05545273       0.00535935
Cu       6.42343920       5.19200409      10.09788646        3       0.03066164       0.01202331       0.00123790      -0.02092110
Cu       8.99281488       5.19200409      10.09788646        3      -0.00169586      -0.01680036      -0.01771743      -0.00780571
Cu      -0.00001456       1.48341895      12.22216237        2      -0.01636645       0.01513824       0.02890834      -0.02503229
Cu       2.56938632       1.48343972      12.22228812        2       0.00815841      -0.00382658       0.08034639       0.00185412
Cu       5.13868200       1.48341490      12.22229490        2      -0.01667176       0.03239849       0.10044474      -0.02398217
Cu       1.28472730       3.70860469      12.22229670        2       0.01884202      -0.00014295       0.05330948       0.01191470
Cu       3.85404919       3.70853617      12.22226661        2      -0.03936590       0.00458067      -0.01994042      -0.00040431
Cu       6.42343137       3.70855859      12.22219237        2      -0.00365783      -0.00484125       0.02174575      -0.00602415
Cu       2.56933175       5.93372331      12.22226822        2       0.03420236      -0.07575558       0.08036391      -0.02647537
Cu       5.13873976       5.93371007      12.22221793        2      -0.02451507      -0.03323219       0.11401720      -0.00628580
Cu       7.70811165       5.93376676      12.22227910        2      -0.04230735      -0.01375123       0.08487903       0.03614512
Cu       0.00003176       0.00005032      14.34901118        1       0.19857764      -0.21539917       0.23178619       0.14047996
Cu       2.56930125       0.00001804      14.34916312        1       0.17649718       0.01547865       0.32681327      -0.05463637
Cu       5.13864853       0.00002580      14.34922433        1      -0.26451168      -0.22124220       0.20089606      -0.00198370
Cu       1.28470809       2.22517124      14.34907163        1       0.40704107       0.11991792       0.09518080      -0.01845405
Cu       3.85409307       2.22518508      14.34928516        1      -0.24394592      -0.00730630       0.33838914      -0.08439953
Cu       6.42349021       2.22507450      14.34904494        1      -0.23411089       0.71699764       0.00813833       0.13531034
Cu       2.56959011       4.45037276      14.34913478        1      -0.04088309      -0.18025838       0.31259125      -0.05135653
Cu       5.13896751       4.45026038      14.34907842        1      -0.01299594      -0.03606615       0.34200001      -0.08092737
Cu       7.70816084       4.45028686      14.34912297        1       0.06770582       0.10923970       0.31658926      -0.09127662
O        7.11179826       0.89689535      16.11985844        0       0.33562350      -1.02256700      -0.20351194      -0.47279717
C        6.68246623       2.22189192      16.38575723        0      -0.31262283       0.99295553       0.13893114       0.11482257
H        5.72930579       2.26989464      16.91642596        0      -0.07294597       0.00381633       0.04047119       0.05884867
H        7.45883765       2.84200848      16.83680072        0       0.04475648       0.03662241       0.02630602       0.05653464
H        6.99629386       1.23980048      17.19752428        0       0.00366392      -0.00779793      -0.00474010       0.42201063
