31
Lattice="8.493 0.0 0.0 4.2465 6.005457892617349 0.0 0.0 0.0 20.003638595078232" Properties=species:S:1:pos:R:3:initial_charges:R:1:tags:I:1:forces:R:3 charge=0 spin=0 energy=-204.9261861561845 free_energy=-204.9261861561845 stress="0.05316503718495369 0.0013368423096835613 0.0001449195551685989 0.0013368423096835613 0.02000460773706436 -0.0016348300268873572 0.0001449195551685989 -0.0016348300268873572 0.009337468072772026" dipole="0.26882073186120464 0.36269908375939347 2.9807532862949824" pbc="T T T"
Fe       0.00000000       0.00000000       8.00000000      -0.01037828        3      -0.06936099      -0.11811452       0.54517543
Fe       2.83100000       0.00000000       8.00000000      -0.00921644        3       0.03991777      -0.10514158       0.44382778
Fe       5.66200000       0.00000000       8.00000000      -0.00984899        3      -0.00492605      -0.09642669       0.64194191
Fe       1.41550000       2.00181930       8.00000000      -0.00971097        3      -0.07699795      -0.13778563       0.45788187
Fe       4.24650000       2.00181930       8.00000000      -0.00950757        3       0.06026230      -0.07090405       0.57887167
Fe       7.07750000       2.00181930       8.00000000      -0.00938399        3      -0.01596660      -0.04815707       0.58283621
Fe       2.83100000       4.00363860       8.00000000      -0.01037332        3       0.06719594      -0.07828349       0.51407903
Fe       5.66200000       4.00363860       8.00000000      -0.01000348        3       0.08173420      -0.05631231       0.56952775
Fe       8.49300000       4.00363860       8.00000000      -0.00966226        3       0.00511408      -0.07944373       0.47148976
Fe       0.00000000       2.00181930      10.00181930      -0.00199349        2      -0.13012198       0.09674641      -0.56865168
Fe       2.83100000       2.00181930      10.00181930       0.00376211        2      -0.01970775       0.47214603      -0.92867953
Fe       5.66200000       2.00181930      10.00181930      -0.00283473        2       0.05408063      -0.24234323      -0.65540159
Fe       1.41550000       4.00363860      10.00181930       0.00040606        2      -0.25555921       0.41620705      -0.47789127
Fe       4.24650000       4.00363860      10.00181930      -0.00447747        2       0.35259950      -0.05942915      -0.54361635
Fe       7.07750000       4.00363860      10.00181930       0.00855413        2      -0.07300048      -0.10312925      -0.23796090
Fe       2.83100000       6.00545789      10.00181930      -0.00043739        2       0.09298673      -0.23071735      -0.18757616
Fe       5.66200000       6.00545789      10.00181930      -0.00199909        2       0.05967033       0.10246891      -0.72055042
Fe       8.49300000       6.00545789      10.00181930      -0.00065936        2      -0.15639718       0.32789174      -0.50482774
Fe       0.25584409      -0.66868811      11.87118476      -0.03846802        1      -0.00662360      -0.00480519       0.00559038
Fe       2.74905897      -0.66056628      11.95126797       0.00710347        1      -0.00198508       0.01015033      -0.01997072
Fe       5.43824324      -0.44159174      11.96151858      -0.01638294        1      -0.00388282       0.00086623       0.01314408
Fe       1.48176542       1.41900756      11.83418587      -0.03274555        1       0.00141425       0.00063139       0.00526894
Fe       3.96350596       1.46484160      11.90845265      -0.01897009        1       0.00787567      -0.00367027       0.00423722
Fe       7.36940734       1.23653072      11.92872161       0.00327918        1      -0.00179212       0.00011471       0.00272254
Fe       2.87798420       3.52563113      11.80422957      -0.03508720        1      -0.00876115       0.00313217      -0.00254488
Fe       5.72379181       3.25327282      11.95155520      -0.01633270        1      -0.03576431       0.00000013      -0.03199536
Fe       8.76286824       3.38096542      11.88916452       0.02099524        1       0.00063496      -0.00254940       0.00738771
N        5.69149329       1.47780443      12.82817840      -0.16107055        0       0.00526707      -0.01503913      -0.00833249
H        7.18730514       4.21337765      13.17710531       0.39443700        0       0.02160698       0.02639647       0.02565982
H        5.67304735       1.47153581      13.86471888       0.24299796        0       0.00456277       0.00440991       0.01387493
O        8.37863968       4.67926452      13.23609014      -0.26199128        0       0.00592420      -0.00890949       0.00448162
