37
Lattice="7.708127040155146 0.0 0.0 3.854063520077573 6.675433832372109 0.0 0.0 0.0 22.29365937364323" Properties=species:S:1:pos:R:3:tags:I:1:forces:R:3:charge:R:1 energy=-4491.507568455583 free_energy=-4491.507568455583 stress="-0.013581682948233843 -0.00013574338516168485 -2.391161067693119e-05 -0.00013574338516168485 -0.013424128171634441 -1.3862429030987124e-05 -2.391161067693119e-05 -1.3862429030987124e-05 -0.01530220671932644" dipole="-0.07368768758678727 -0.0424599811357498 0.046094201308342665" pbc="T T F"
Cu       0.00000000       0.00000000       8.00000000        4       0.02165155       0.01249664      -0.27654918       0.01512650
Cu       2.56937568       0.00000000       8.00000000        4      -0.03148147       0.01305276      -0.30049812       0.00272959
Cu       5.13875136       0.00000000       8.00000000        4       0.00902837       0.01573542      -0.27385970       0.00931929
Cu       1.28468784       2.22514461       8.00000000        4      -0.00441815      -0.03382841      -0.30045193       0.00274452
Cu       3.85406352       2.22514461       8.00000000        4       0.07404361       0.04274761      -0.31301054       0.00540041
Cu       6.42343920       2.22514461       8.00000000        4      -0.07037988       0.09242786      -0.36021205      -0.01445478
Cu       2.56937568       4.45028922       8.00000000        4       0.01816743      -0.00002950      -0.27383220       0.00931625
Cu       5.13875136       4.45028922       8.00000000        4       0.04487175      -0.10714807      -0.36021237      -0.01445264
Cu       7.70812704       4.45028922       8.00000000        4      -0.06425855      -0.03704671      -0.31714860       0.00616085
Cu       1.28468784       0.74171487      10.09788646        3       0.01418839       0.00816036      -0.00114126      -0.00000510
Cu       3.85406352       0.74171487      10.09788646        3      -0.02191354      -0.04029417      -0.01913322      -0.00388269
Cu       6.42343920       0.74171487      10.09788646        3       0.00937665      -0.02887406      -0.04104678      -0.00158526
Cu       2.56937568       2.96685948      10.09788646        3      -0.04584348       0.00118359      -0.01913347      -0.00387652
Cu       5.13875136       2.96685948      10.09788646        3       0.05010416       0.02889358      -0.04063023       0.00807943
Cu       7.70812704       2.96685948      10.09788646        3      -0.00125276       0.01657375      -0.03731106      -0.00671182
Cu       3.85406352       5.19200409      10.09788646        3      -0.02032698       0.02259111      -0.04100984      -0.00158110
Cu       6.42343920       5.19200409      10.09788646        3       0.01371539      -0.00935990      -0.03728799      -0.00671638
Cu       8.99281488       5.19200409      10.09788646        3       0.00931318       0.00539709      -0.02939843       0.00092330
Cu      -0.00001456       1.48341895      12.22216237        2      -0.00071238       0.00752804       0.09851818      -0.00642647
Cu       2.56938632       1.48343972      12.22228812        2      -0.01780781      -0.01023245       0.08609833      -0.00256167
Cu       5.13868200       1.48341490      12.22229490        2       0.00530082       0.00643398       0.02104470      -0.01405779
Cu       1.28472730       3.70860469      12.22229670        2      -0.00068387      -0.00522206       0.10200877      -0.00123975
Cu       3.85404919       3.70853617      12.22226661        2       0.00816476       0.00137894       0.02117313      -0.01405817
Cu       6.42343137       3.70855859      12.22219237        2      -0.01426645      -0.00827888      -0.08157254      -0.00997256
Cu       2.56933175       5.93372331      12.22226822        2      -0.00674333      -0.00392099       0.08992180       0.00412557
Cu       5.13873976       5.93371007      12.22221793        2       0.00606899      -0.00440965       0.09838657      -0.00643016
Cu       7.70811165       5.93376676      12.22227910        2      -0.00478567       0.00188661       0.10210836      -0.00124076
Cu       0.00003176       0.00005032      14.34901118        1      -0.01680874      -0.00986920       0.22815739       0.00244843
Cu       2.56930125       0.00001804      14.34916312        1       0.04452404       0.06222516       0.25672604      -0.00266362
Cu       5.13864853       0.00002580      14.34922433        1      -0.03260639      -0.07444416       0.24575407      -0.00561910
Cu       1.28470809       2.22517124      14.34907163        1       0.07607584       0.00732780       0.25683306      -0.00264879
Cu       3.85409307       2.22518508      14.34928516        1      -0.17872367      -0.10321741       0.27615298       0.00578418
Cu       6.42349021       2.22507450      14.34904494        1       0.09386718      -0.09062722       0.36032805       0.00329691
Cu       2.56959011       4.45037276      14.34913478        1      -0.08144162       0.00840916       0.24593236      -0.00560984
Cu       5.13896751       4.45026038      14.34907842        1      -0.03227864       0.12691463       0.36020322       0.00330831
Cu       7.70816084       4.45028686      14.34912297        1       0.16175896       0.09329659       0.24354181       0.00484733
H        5.77830805       3.33598940      15.31445648        0      -0.01348769      -0.00785787       0.03055071       0.04218413
