37
Lattice="7.708127040155146 0.0 0.0 3.854063520077573 6.675433832372109 0.0 0.0 0.0 22.29365937364323" Properties=species:S:1:pos:R:3:tags:I:1:forces:R:3:charge:R:1 energy=-4491.485512731112 free_energy=-4491.485512731112 stress="-0.013427772257968382 -0.0003290835340651788 -2.2425320619410493e-05 -0.0003290835340651788 -0.013046890649137709 -1.3022433603001123e-05 -2.2425320619410493e-05 -1.3022433603001123e-05 -0.01472463164844098" dipole="-0.09359300883625718 -0.053956178484065254 0.02705571007425593" pbc="T T F"
Cu       0.00000000       0.00000000       8.00000000        4       0.01706683       0.00984941      -0.27651457       0.01509649
Cu       2.56937568       0.00000000       8.00000000        4      -0.02755653       0.00855510      -0.29960889       0.00315331
Cu       5.13875136       0.00000000       8.00000000        4       0.00987717       0.01554564      -0.27435140       0.00873955
Cu       1.28468784       2.22514461       8.00000000        4      -0.00635048      -0.02818072      -0.29956345       0.00316748
Cu       3.85406352       2.22514461       8.00000000        4       0.07446368       0.04299071      -0.31231449       0.00541382
Cu       6.42343920       2.22514461       8.00000000        4      -0.06870110       0.08852640      -0.35880920      -0.01424222
Cu       2.56937568       4.45028922       8.00000000        4       0.01842823       0.00080030      -0.27432434       0.00873643
Cu       5.13875136       4.45028922       8.00000000        4       0.04233194      -0.10374346      -0.35881073      -0.01424113
Cu       7.70812704       4.45028922       8.00000000        4      -0.06173813      -0.03559113      -0.31638631       0.00583221
Cu       1.28468784       0.74171487      10.09788646        3       0.01315303       0.00756430       0.00071199       0.00028976
Cu       3.85406352       0.74171487      10.09788646        3      -0.02043926      -0.03858815      -0.01783052      -0.00394960
Cu       6.42343920       0.74171487      10.09788646        3       0.00835646      -0.02711327      -0.04172973      -0.00192865
Cu       2.56937568       2.96685948      10.09788646        3      -0.04362980       0.00160687      -0.01783062      -0.00394382
Cu       5.13875136       2.96685948      10.09788646        3       0.04629462       0.02669571      -0.04360713       0.00824772
Cu       7.70812704       2.96685948      10.09788646        3      -0.00008541       0.01538260      -0.04025426      -0.00663480
Cu       3.85406352       5.19200409      10.09788646        3      -0.01931130       0.02082606      -0.04169277      -0.00192483
Cu       6.42343920       5.19200409      10.09788646        3       0.01326665      -0.00775522      -0.04023171      -0.00663912
Cu       8.99281488       5.19200409      10.09788646        3       0.00799578       0.00463632      -0.02838790       0.00106805
Cu      -0.00001456       1.48341895      12.22216237        2      -0.00192590       0.00920230       0.10834477      -0.00530841
Cu       2.56938632       1.48343972      12.22228812        2      -0.01775217      -0.01020017       0.09002485      -0.00397782
Cu       5.13868200       1.48341490      12.22229490        2       0.00619845       0.00524789       0.03462379      -0.01223303
Cu       1.28472730       3.70860469      12.22229670        2      -0.00025043      -0.00480502       0.10538407      -0.00138038
Cu       3.85404919       3.70853617      12.22226661        2       0.00758670       0.00274910       0.03474995      -0.01223385
Cu       6.42343137       3.70855859      12.22219237        2      -0.01223054      -0.00710287      -0.06094038      -0.00835799
Cu       2.56933175       5.93372331      12.22226822        2      -0.00659051      -0.00383219       0.09396808       0.00333134
Cu       5.13873976       5.93371007      12.22221793        2       0.00691167      -0.00629888       0.10821160      -0.00531245
Cu       7.70811165       5.93376676      12.22227910        2      -0.00420697       0.00205376       0.10548306      -0.00138147
Cu       0.00003176       0.00005032      14.34901118        1      -0.01578448      -0.00927785       0.22728988       0.00518473
Cu       2.56930125       0.00001804      14.34916312        1       0.04416754       0.06546487       0.25572803      -0.00263920
Cu       5.13864853       0.00002580      14.34922433        1      -0.03330178      -0.07616964       0.24514018      -0.00535759
Cu       1.28470809       2.22517124      14.34907163        1       0.07870138       0.00540117       0.25583498      -0.00262470
Cu       3.85409307       2.22518508      14.34928516        1      -0.16778598      -0.09690318       0.28289608       0.00775186
Cu       6.42349021       2.22507450      14.34904494        1      -0.01983898       0.10018381       0.53739992      -0.00303509
Cu       2.56959011       4.45037276      14.34913478        1      -0.08328484       0.00867118       0.24531812      -0.00534847
Cu       5.13896751       4.45026038      14.34907842        1       0.07610871      -0.06700392       0.53729640      -0.00302427
Cu       7.70816084       4.45028686      14.34912297        1       0.15064713       0.08687880       0.24975326       0.00705516
H        5.78116743       3.33764985      15.42441060        0      -0.01079138      -0.00626660      -0.41497061       0.04265102
