29
Lattice="8.493 0.0 0.0 4.2465 6.005457892617349 0.0 0.0 0.0 20.003638595078232" Properties=species:S:1:pos:R:3:tags:I:1:forces:R:3 charge=0 spin=0 energy=-191.9563334699801 free_energy=-191.9563334699801 stress="0.04768896475434303 0.00019021544721908867 -7.705036182414915e-07 0.00019021544721908867 0.029729867354035378 -4.291045296866969e-09 -7.705036182414915e-07 -4.291045296866969e-09 0.011974087916314602" pbc="T T T"
Fe       0.00000000       0.00000000       8.00000000        3       0.00000347       0.00000736       0.42492127
Fe       2.83100000       0.00000000       8.00000000        3       0.02257876       0.01625019       0.51878422
Fe       5.66200000       0.00000000       8.00000000        3      -0.02258277      -0.01624084       0.51875508
Fe       1.41550000       2.00181930       8.00000000        3      -0.11372852      -0.00380651       0.67959279
Fe       4.24650000       2.00181930       8.00000000        3       0.06998589      -0.03553542       0.58474523
Fe       7.07750000       2.00181930       8.00000000        3       0.01101235      -0.02811578       0.52391618
Fe       2.83100000       4.00363860       8.00000000        3       0.11368667       0.00383010       0.67961758
Fe       5.66200000       4.00363860       8.00000000        3      -0.01101976       0.02813324       0.52389568
Fe       8.49300000       4.00363860       8.00000000        3      -0.06995365       0.03554476       0.58470958
Fe       0.00000000       2.00181930      10.00181930        2      -0.41716629       0.18913265      -0.09820458
Fe       2.83100000       2.00181930      10.00181930        2       0.13524418       0.02347730      -0.55393893
Fe       5.66200000       2.00181930      10.00181930        2       0.45384488      -0.05949951      -0.40645164
Fe       1.41550000       4.00363860      10.00181930        2      -0.13533944      -0.02360924      -0.55371457
Fe       4.24650000       4.00363860      10.00181930        2       0.41701862      -0.18924575      -0.09836682
Fe       7.07750000       4.00363860      10.00181930        2      -0.45366165       0.05946271      -0.40674359
Fe       2.83100000       6.00545789      10.00181930        2       0.08183619      -0.13404396      -0.82315499
Fe       5.66200000       6.00545789      10.00181930        2      -0.08191111       0.13393117      -0.82315433
Fe       8.49300000       6.00545789      10.00181930        2       0.00001332      -0.00008803      -0.62451863
Fe      -0.00000287       0.00000023      11.84178561        1      -0.00004487       0.00008269      -0.00256611
Fe       2.81392578       0.02596019      11.84156240        1       0.01156282       0.13008556      -0.03306263
Fe       5.67907851      -0.02592503      11.84156611        1      -0.01151533      -0.12983446      -0.03302234
Fe       1.42562685       2.00003845      11.85874201        1       0.05191986       0.00416515      -0.02191266
Fe       4.22948758       2.01003048      11.85654004        1       0.07502350       0.14198379      -0.02383963
Fe       7.00451573       1.90199425      12.06049545        1      -0.23302135      -0.25777641       0.01592152
Fe       2.82087718       4.00543189      11.85874519        1      -0.05192728      -0.00400637      -0.02188713
Fe       5.73499357       4.10350267      12.06044797        1       0.23301479       0.25778863       0.01585127
Fe       8.50997888       3.99543997      11.85657122        1      -0.07520220      -0.14188050      -0.02376904
N        6.36992373       3.00288418      13.32188987        0       0.00030188       0.00013469      -0.36298653
H        6.37005932       3.00314688      14.35591233        0       0.00002701      -0.00032703      -0.15941688
