42
Lattice="7.708127040155146 0.0 0.0 3.854063520077573 6.675433832372109 0.0 0.0 0.0 22.29365937364323" Properties=species:S:1:pos:R:3:tags:I:1:forces:R:3:charge:R:1 energy=-4717.5936034927445 free_energy=-4717.5936034927445 stress="-0.013271455045234179 5.3014835620105294e-05 -0.00010863773965158767 5.3014835620105294e-05 -0.012761054896977965 1.584388751468323e-05 -0.00010863773965158767 1.584388751468323e-05 -0.01484762131243361" dipole="0.717656199392987 -0.6346244780170422 1.4338122113056926" pbc="T T F"
Cu       0.00000000       0.00000000       8.00000000        4       0.01693881      -0.01101724      -0.29890895      -0.00353782
Cu       2.56937568       0.00000000       8.00000000        4       0.00636609       0.00948199      -0.34252227      -0.00083659
Cu       5.13875136       0.00000000       8.00000000        4      -0.02300462      -0.01319469      -0.32559539      -0.01450439
Cu       1.28468784       2.22514461       8.00000000        4       0.03580171       0.01733967      -0.33649340      -0.01906613
Cu       3.85406352       2.22514461       8.00000000        4      -0.01231519       0.02056217      -0.35485602      -0.01525675
Cu       6.42343920       2.22514461       8.00000000        4      -0.02357828       0.00145125      -0.30062527      -0.00163225
Cu       2.56937568       4.45028922       8.00000000        4      -0.00774596      -0.02969675      -0.32714398      -0.01050071
Cu       5.13875136       4.45028922       8.00000000        4      -0.02787195      -0.00773559      -0.32859451      -0.02073165
Cu       7.70812704       4.45028922       8.00000000        4       0.03590731       0.02071284      -0.31743659      -0.00634000
Cu       1.28468784       0.74171487      10.09788646        3      -0.01270918       0.02821171      -0.02737820       0.00724146
Cu       3.85406352       0.74171487      10.09788646        3       0.04140716       0.01847243      -0.00170520       0.00164182
Cu       6.42343920       0.74171487      10.09788646        3      -0.02914964      -0.01116395      -0.05100935       0.00721546
Cu       2.56937568       2.96685948      10.09788646        3       0.00287107      -0.01099525       0.01379491       0.00317422
Cu       5.13875136       2.96685948      10.09788646        3      -0.04084959       0.03220193      -0.00804636       0.00691482
Cu       7.70812704       2.96685948      10.09788646        3       0.03823782       0.00279936      -0.02321018       0.01116902
Cu       3.85406352       5.19200409      10.09788646        3       0.04380132      -0.04197091       0.00076390       0.00694214
Cu       6.42343920       5.19200409      10.09788646        3      -0.03052947      -0.03984700      -0.01281803       0.00124747
Cu       8.99281488       5.19200409      10.09788646        3      -0.01345961       0.00487996      -0.01467841       0.00101134
Cu      -0.00001456       1.48341895      12.22216237        2       0.05197565      -0.03483163       0.15604827       0.00920928
Cu       2.56938632       1.48343972      12.22228812        2      -0.01087880       0.00266569       0.07683344       0.00649678
Cu       5.13868200       1.48341490      12.22229490        2      -0.04602218      -0.05300887       0.10053410       0.01546360
Cu       1.28472730       3.70860469      12.22229670        2       0.00760294       0.02453372       0.07899060       0.00831469
Cu       3.85404919       3.70853617      12.22226661        2       0.01198298       0.02539481       0.08478700       0.00105829
Cu       6.42343137       3.70855859      12.22219237        2      -0.02091792       0.08934646       0.09681124       0.01965637
Cu       2.56933175       5.93372331      12.22226822        2      -0.03761924       0.00041952       0.09118935       0.01791543
Cu       5.13873976       5.93371007      12.22221793        2       0.00698235      -0.02936767       0.08503691       0.00566324
Cu       7.70811165       5.93376676      12.22227910        2       0.03106436      -0.00691980       0.04821754       0.00426119
Cu       0.00003176       0.00005032      14.34901118        1       0.09507368      -0.09954979       0.28769139      -0.00587841
Cu       2.56930125       0.00001804      14.34916312        1       0.05485406      -0.00152866       0.31631254      -0.04126464
Cu       5.13864853       0.00002580      14.34922433        1      -0.15338073      -0.09652235       0.16698890      -0.08105614
Cu       1.28470809       2.22517124      14.34907163        1       0.10940886       0.01837520       0.25191347      -0.04598930
Cu       3.85409307       2.22518508      14.34928516        1      -0.10464353       0.01178576       0.24113673      -0.04712750
Cu       6.42349021       2.22507450      14.34904494        1      -0.03388734       0.08731492       0.17105389      -0.00817951
Cu       2.56959011       4.45037276      14.34913478        1      -0.00826323      -0.07002272       0.24777393      -0.03759351
Cu       5.13896751       4.45026038      14.34907842        1      -0.03731706       0.07326513       0.27124395      -0.06213017
Cu       7.70816084       4.45028686      14.34912297        1       0.05027531       0.07529102       0.31677761      -0.06154775
O        6.82657669       0.38427114      17.19829099        0       0.00049185      -0.00347506      -0.00727357      -0.46106104
C        6.64987349       1.94283009      17.32402311        0      -0.00257042       0.00666604      -0.00425384      -0.07292831
H        5.77361727       2.21508601      16.72259705        0       0.02303989      -0.00407065       0.01605168       0.05821430
H        7.57738592       2.36039924      16.92224543        0      -0.00546856      -0.01736524      -0.02093112       0.06593121
H        6.74248950       0.86178867      18.13921447        0       0.02732267       0.01036082      -0.02211925       0.36783615
H        5.96048546       0.00890077      16.96836085        0      -0.00922339       0.00075143       0.00564854       0.39058429
