29
Lattice="8.493 0.0 0.0 4.2465 6.005457892617349 0.0 0.0 0.0 20.003638595078232" Properties=species:S:1:pos:R:3:tags:I:1:forces:R:3 charge=0 spin=0 energy=-194.76935131513392 free_energy=-194.76935131513392 stress="0.053236257284879684 -0.00019416022405494004 0.00015803998394403607 -0.00019416022405494004 0.022375868633389473 0.0018374804640188813 0.00015803998394403607 0.0018374804640188813 0.008965332992374897" pbc="T T T"
Fe       0.00000000       0.00000000       8.00000000        3       0.02526625       0.13143781       0.42482126
Fe       2.83100000       0.00000000       8.00000000        3       0.00131919       0.10053524       0.63436300
Fe       5.66200000       0.00000000       8.00000000        3      -0.02588297       0.12577672       0.43097118
Fe       1.41550000       2.00181930       8.00000000        3      -0.03762593       0.09698573       0.47268605
Fe       4.24650000       2.00181930       8.00000000        3       0.03694649       0.09420110       0.46348485
Fe       7.07750000       2.00181930       8.00000000        3       0.01005620       0.07986886       0.49858323
Fe       2.83100000       4.00363860       8.00000000        3       0.02183235       0.13692310       0.43144423
Fe       5.66200000       4.00363860       8.00000000        3       0.04274180       0.09413480       0.60161489
Fe       8.49300000       4.00363860       8.00000000        3      -0.04641699       0.07274304       0.62978756
Fe       0.00000000       2.00181930      10.00181930        2      -0.14263383       0.12679899      -0.38209766
Fe       2.83100000       2.00181930      10.00181930        2      -0.03239246      -0.49131280      -0.49549627
Fe       5.66200000       2.00181930      10.00181930        2       0.16463314       0.11458395      -0.36409047
Fe       1.41550000       4.00363860      10.00181930        2      -0.08848779      -0.33916861      -0.63997298
Fe       4.24650000       4.00363860      10.00181930        2       0.04647087      -0.36695400      -0.64856070
Fe       7.07750000       4.00363860      10.00181930        2       0.03849765       0.30555272      -0.77534157
Fe       2.83100000       6.00545789      10.00181930        2       0.00369578      -0.21348117      -0.62176925
Fe       5.66200000       6.00545789      10.00181930        2      -0.37646949      -0.02399489      -0.33354473
Fe       8.49300000       6.00545789      10.00181930        2       0.40212941      -0.05902867      -0.33047560
Fe      -0.16345578       0.67133315      11.87191113        1      -0.00450545       0.00415839       0.00210069
Fe       2.84155097       0.37996093      11.83045535        1      -0.00305062       0.00644756       0.00455569
Fe       5.83023042       0.66566891      11.86770199        1      -0.00130078       0.00872641      -0.00307011
Fe       1.45787557       2.52894244      11.83018250        1       0.00507068       0.00380699      -0.00034211
Fe       4.19428298       2.51632386      11.82826845        1       0.01362044      -0.00204401      -0.00049101
Fe       7.09292978       2.75392581      11.92971552        1      -0.00842540      -0.00661725      -0.01019396
Fe       2.85768415       4.57013581      11.84344463        1      -0.01348180      -0.00330168       0.00916844
Fe       5.36784613       4.67683873      11.93435872        1      -0.01778853       0.00410903       0.00299562
Fe       8.81461720       4.69279775      11.93934101        1      -0.00060289      -0.01662901       0.00211684
N        7.08789153       4.53435657      12.82719459        0      -0.00502734       0.01512970      -0.03590694
H        7.09090127       4.51722463      13.86256183        0      -0.00818845       0.00061188       0.03266016
