29
Lattice="8.493 0.0 0.0 4.2465 6.005457892617349 0.0 0.0 0.0 20.003638595078232" Properties=species:S:1:pos:R:3:tags:I:1:forces:R:3 charge=0 spin=0 energy=-193.73101170026575 free_energy=-193.73101170026575 stress="0.04710621386766434 -0.0011796742910519242 -0.001188805908896029 -0.0011796742910519242 0.02724306471645832 -0.002681866753846407 -0.001188805908896029 -0.002681866753846407 0.00909340288490057" pbc="T T T"
Fe       0.00000000       0.00000000       8.00000000        3      -0.05331161       0.10296939       0.55062848
Fe       2.83100000       0.00000000       8.00000000        3      -0.05287889       0.05629677       0.39544907
Fe       5.66200000       0.00000000       8.00000000        3       0.06065461       0.11783221       0.49345598
Fe       1.41550000       2.00181930       8.00000000        3      -0.09119163       0.09965033       0.50507802
Fe       4.24650000       2.00181930       8.00000000        3      -0.04942581       0.06009221       0.44511089
Fe       7.07750000       2.00181930       8.00000000        3       0.03581813       0.10008167       0.45058912
Fe       2.83100000       4.00363860       8.00000000        3      -0.07570150       0.10238757       0.62668115
Fe       5.66200000       4.00363860       8.00000000        3      -0.03195719       0.08288533       0.45781350
Fe       8.49300000       4.00363860       8.00000000        3       0.01844090       0.09317714       0.52862298
Fe       0.00000000       2.00181930      10.00181930        2      -0.04123961      -0.28824031      -0.02050164
Fe       2.83100000       2.00181930      10.00181930        2      -0.23652418      -0.59730750      -0.41656858
Fe       5.66200000       2.00181930      10.00181930        2       0.16882712      -0.13170141      -0.95205259
Fe       1.41550000       4.00363860      10.00181930        2      -0.22581342       0.00858312       0.12532559
Fe       4.24650000       4.00363860      10.00181930        2       0.14451550      -0.77320474      -0.52277303
Fe       7.07750000       4.00363860      10.00181930        2       0.27034563      -0.20816939      -0.80024886
Fe       2.83100000       6.00545789      10.00181930        2       0.09329568      -0.20458962       0.03140373
Fe       5.66200000       6.00545789      10.00181930        2      -0.00000930      -0.74758828      -0.80533516
Fe       8.49300000       6.00545789      10.00181930        2      -0.18443878      -0.09719960      -1.01679909
Fe       0.18510673       0.39193830      11.83235703        1       0.22138116       0.38926119       0.05141572
Fe       2.82503211       0.42249874      11.83148943        1      -0.17656426       0.19251274       0.00626941
Fe       5.44963714      -0.19610056      11.84909724        1      -0.07858840       0.07739969      -0.01979630
Fe       1.48263607       2.48209638      11.82366350        1       0.25102189       0.35825270       0.07579048
Fe       4.25964394       2.26416918      11.82477061        1      -0.11322946       0.23541856      -0.03218218
Fe       6.87175240       1.86254379      11.92901554        1      -0.01745695       0.07175144      -0.03051238
Fe       3.03258251       4.40676121      11.83189645        1       0.18165465       0.45245990       0.04031431
Fe       5.67762849       4.33343915      11.92063688        1      -0.10731278       0.17204116       0.01909725
Fe       8.12606475       4.07493048      12.02587202        1      -0.02713117       0.10268339      -0.07384696
N        6.76355193       3.31350649      13.09445464        0      -0.02603562       0.10503455      -0.04826384
H        6.64093879       3.25236178      14.11777197        0       0.14285535       0.06722996      -0.06416535
