41
Lattice="7.708127040155146 0.0 0.0 3.854063520077573 6.675433832372109 0.0 0.0 0.0 22.29365937364323" Properties=species:S:1:pos:R:3:tags:I:1:forces:R:3:charge:R:1 energy=-4703.514589328125 free_energy=-4703.514589328125 stress="-0.014198692132761145 0.0010092473921697407 1.554190885762787e-06 0.0010092473921697407 -0.013046345648533028 2.9784485537923667e-05 1.554190885762787e-06 2.9784485537923667e-05 -0.015427932727715355" dipole="-0.8385174908704525 -0.5193825468242493 1.700204496148776" pbc="T T F"
Cu       0.00000000       0.00000000       8.00000000        4       0.04280714       0.00852756      -0.28342160      -0.01072409
Cu       2.56937568       0.00000000       8.00000000        4      -0.02340122       0.01064654      -0.30884836       0.00487986
Cu       5.13875136       0.00000000       8.00000000        4      -0.02683695      -0.02076052      -0.31144864       0.00065154
Cu       1.28468784       2.22514461       8.00000000        4       0.00737010      -0.04188387      -0.28326452      -0.01304390
Cu       3.85406352       2.22514461       8.00000000        4       0.04944262       0.06778826      -0.34757799      -0.01338311
Cu       6.42343920       2.22514461       8.00000000        4      -0.06483323       0.04246071      -0.32025229      -0.01222228
Cu       2.56937568       4.45028922       8.00000000        4       0.02533039      -0.01012791      -0.29337234      -0.00493367
Cu       5.13875136       4.45028922       8.00000000        4      -0.03379620      -0.07375317      -0.34841815      -0.01527146
Cu       7.70812704       4.45028922       8.00000000        4       0.00060249       0.03099522      -0.30802937       0.00057733
Cu       1.28468784       0.74171487      10.09788646        3      -0.02179303       0.01927531      -0.10048247       0.03108058
Cu       3.85406352       0.74171487      10.09788646        3       0.06161522       0.00633693      -0.00806430      -0.01191915
Cu       6.42343920       0.74171487      10.09788646        3      -0.02109909      -0.01069070      -0.09121909       0.01186060
Cu       2.56937568       2.96685948      10.09788646        3       0.04864708       0.04419887      -0.01423542       0.00432324
Cu       5.13875136       2.96685948      10.09788646        3      -0.02834381       0.01144794      -0.00905706       0.00090107
Cu       7.70812704       2.96685948      10.09788646        3       0.00307033       0.01748681      -0.09511653       0.01539767
Cu       3.85406352       5.19200409      10.09788646        3      -0.01949036      -0.06837235      -0.01563775       0.00341489
Cu       6.42343920       5.19200409      10.09788646        3       0.02796380      -0.05336762      -0.01319438      -0.01093738
Cu       8.99281488       5.19200409      10.09788646        3       0.01223633      -0.00415116      -0.02054739      -0.00836853
Cu      -0.00001456       1.48341895      12.22216237        2       0.06500716      -0.03617673       0.08427536      -0.01485282
Cu       2.56938632       1.48343972      12.22228812        2      -0.01642733      -0.02353036       0.07707514      -0.03031793
Cu       5.13868200       1.48341490      12.22229490        2      -0.06693496      -0.01865602       0.10310731      -0.00118895
Cu       1.28472730       3.70860469      12.22229670        2       0.01700924       0.04217518       0.11222578      -0.00784181
Cu       3.85404919       3.70853617      12.22226661        2      -0.01607705       0.01686588       0.04328189       0.01464075
Cu       6.42343137       3.70855859      12.22219237        2      -0.02093908       0.07432552       0.09246721      -0.00511563
Cu       2.56933175       5.93372331      12.22226822        2      -0.02776981      -0.03917504       0.10987320      -0.00563505
Cu       5.13873976       5.93371007      12.22221793        2       0.01344900       0.02026047       0.06897870      -0.02949029
Cu       7.70811165       5.93376676      12.22227910        2      -0.00619580       0.00096900       0.03866323       0.03219953
Cu       0.00003176       0.00005032      14.34901118        1       0.04829729      -0.19972514       0.31757579       0.11412853
Cu       2.56930125       0.00001804      14.34916312        1       0.28669271      -0.16941078       0.22778650      -0.01755658
Cu       5.13864853       0.00002580      14.34922433        1      -0.23006268      -0.13661489       0.24775600      -0.05591012
Cu       1.28470809       2.22517124      14.34907163        1       0.20911364       0.06342278       0.27288189       0.14148675
Cu       3.85409307       2.22518508      14.34928516        1       0.03855805      -0.00915752       0.32567900      -0.07922666
Cu       6.42349021       2.22507450      14.34904494        1      -0.34290580       0.18648636       0.15049483       0.04373872
Cu       2.56959011       4.45037276      14.34913478        1       0.00170640      -0.00921348       0.31126020      -0.06800941
Cu       5.13896751       4.45026038      14.34907842        1       0.00689574      -0.01141297       0.32551446      -0.07315028
Cu       7.70816084       4.45028686      14.34912297        1       0.00203138       0.28626878       0.22720967      -0.05973786
O        8.11052187       1.31914127      16.07410612        0       0.00316882      -0.01135267       0.01551911      -0.46545720
C        6.99784965       1.96076939      16.76899102        0       0.00169572       0.00119961       0.00195821       0.07856726
H        6.98403735       3.04662348      16.73361613        0       0.00509932       0.00348167       0.00394014       0.07411761
H        6.06732924       1.40111949      16.77812231        0      -0.00373715      -0.00139730       0.00344372       0.07437882
H        8.00881448       1.42501868      17.21576798        0      -0.00716644      -0.00568921       0.01122032       0.36794938
