41
Lattice="7.708127040155146 0.0 0.0 3.854063520077573 6.675433832372109 0.0 0.0 0.0 22.29365937364323" Properties=species:S:1:pos:R:3:tags:I:1:forces:R:3:charge:R:1 energy=-4703.768129494503 free_energy=-4703.768129494503 stress="-0.017030336933177688 0.002290836195774541 -0.0018971025844126558 0.002290836195774541 -0.014284722030875326 0.0011917672571228023 -0.0018971025844126558 0.0011917672571228023 -0.013671070615537809" dipole="-0.2521912684546645 -0.38542947556664925 1.938420670051377" pbc="T T F"
Cu       0.00000000      -0.00000000       8.00000000        4       0.03491372       0.00238715      -0.28222706      -0.00559732
Cu       2.56937568       0.00000000       8.00000000        4      -0.05064148       0.02887129      -0.32684363      -0.01164245
Cu       5.13875136      -0.00000000       8.00000000        4       0.00648477      -0.00334057      -0.28707027       0.01107849
Cu       1.28468784       2.22514461       8.00000000        4       0.01049829      -0.02970713      -0.28321378      -0.00692311
Cu       3.85406352       2.22514461       8.00000000        4       0.04095085       0.07154501      -0.32529892      -0.00632639
Cu       6.42343920       2.22514461       8.00000000        4      -0.06131939       0.04027029      -0.32199104      -0.03484982
Cu       2.56937568       4.45028922       8.00000000        4       0.02534869      -0.01356171      -0.30438838      -0.01731486
Cu       5.13875136       4.45028922       8.00000000        4      -0.04192601      -0.07068144      -0.32839802      -0.00781240
Cu       7.70812704       4.45028922       8.00000000        4       0.00554422      -0.00847856      -0.28880570       0.01100246
Cu       1.28468784       0.74171487      10.09788646        3       0.05361522      -0.03205151      -0.06996270       0.02345663
Cu       3.85406352       0.74171487      10.09788646        3      -0.01138670      -0.02351801      -0.00085339      -0.01550240
Cu       6.42343920       0.74171487      10.09788646        3      -0.01924298       0.02233849      -0.11481239       0.01833113
Cu       2.56937568       2.96685948      10.09788646        3       0.03724708       0.02968591      -0.02067616       0.00222376
Cu       5.13875136       2.96685948      10.09788646        3       0.02353563      -0.01101847      -0.01960851       0.00985528
Cu       7.70812704       2.96685948      10.09788646        3      -0.02994218       0.00435223      -0.11538111       0.01927744
Cu       3.85406352       5.19200409      10.09788646        3      -0.00481490      -0.04721850      -0.01966189       0.00182297
Cu       6.42343920       5.19200409      10.09788646        3       0.01124180       0.02129324      -0.00023147      -0.01638426
Cu       8.99281488       5.19200409      10.09788646        3       0.01897160      -0.00943667      -0.02632983      -0.00361518
Cu      -0.00001456       1.48341895      12.22216237        2      -0.03971224       0.02148595       0.05252838      -0.01461275
Cu       2.56938632       1.48343972      12.22228812        2       0.00148182      -0.02855971       0.09315202      -0.01582303
Cu       5.13868200       1.48341490      12.22229490        2      -0.00809506       0.01781849       0.06232684      -0.01373199
Cu       1.28472730       3.70860469      12.22229670        2       0.03401386       0.06477474       0.08519553      -0.00969450
Cu       3.85404919       3.70853617      12.22226661        2      -0.03717998       0.02458668       0.00753586       0.00875722
Cu       6.42343137       3.70855859      12.22219237        2      -0.02207904      -0.00152402       0.05687972      -0.01461112
Cu       2.56933175       5.93372331      12.22226822        2      -0.03993177      -0.06165598       0.08353327      -0.00929348
Cu       5.13873976       5.93371007      12.22221793        2       0.02392030       0.01181068       0.09104299      -0.01498685
Cu       7.70811165       5.93376676      12.22227910        2      -0.01561681       0.01146551       0.04196037       0.03695429
Cu       0.00003176       0.00005032      14.34901118        1       0.07681136      -0.31630949       0.29332629       0.08494004
Cu       2.56930125       0.00001804      14.34916312        1       0.22857768      -0.13360426       0.24826993      -0.03146180
Cu       5.13864853       0.00002580      14.34922433        1      -0.24005445      -0.19384616       0.20770999      -0.06330439
Cu       1.28470809       2.22517124      14.34907163        1       0.32057477       0.08534568       0.27026850       0.08779164
Cu       3.85409307       2.22518508      14.34928516        1       0.02092057      -0.02565156       0.33214748      -0.08023075
Cu       6.42349021       2.22507450      14.34904494        1      -0.61160674       0.35946049       0.03264897       0.11454416
Cu       2.56959011       4.45037276      14.34913478        1      -0.01780892      -0.00576694       0.33624410      -0.06506147
Cu       5.13896751       4.45026038      14.34907842        1       0.02672282      -0.00838714       0.32896821      -0.08406052
Cu       7.70816084       4.45028686      14.34912297        1       0.04742675       0.31174267       0.19873937      -0.06310382
O        7.85905750       1.41527749      16.11120051        0       1.18643313      -0.70890731      -0.27501289      -0.46783953
C        6.66452968       2.12785935      16.38683951        0      -1.13807052       0.66011184       0.17665202       0.10887868
H        6.84495712       3.08658693      16.87746879        0       0.01528545       0.08387483       0.04276923       0.05651924
H        5.92055077       1.52039409      16.90473966        0      -0.06934165      -0.05693445       0.04855336       0.05760359
H        7.57511284       1.63078857      17.19068196        0       0.00744677       0.00517103      -0.00389529       0.42074718
