4
Lattice="21.58863531489777 0.0 0.0 0.0 21.671900760433942 0.0 0.0 0.0 20.328078220468747" Properties=species:S:1:pos:R:3:forces:R:3 charge=0 spin=1 energy=-1538.795188187374 free_energy=-1538.795188187374 stress="2.9814198569511063e-05 -1.3198208762332797e-05 4.038837232656078e-06 -1.3198208762332797e-05 -1.1348619182172115e-06 -1.8717723548888898e-07 4.038837232656078e-06 -1.8717723548888898e-07 -1.3193535778555088e-05" pbc="T T T"
N       10.60293417      10.77432880      10.32749417      -0.12497070       0.00799682       0.38752943
H       11.55126159      10.65809321       9.99806598      -0.16129851       0.08251891      -0.15862259
H       10.02167976      10.01459742      10.00733748       0.08736975      -0.06083868      -0.11201679
H       10.20167506      11.64489322      10.00784956       0.19889948      -0.02967706      -0.11689001
