29
Lattice="8.493 0.0 0.0 4.2465 6.005457892617349 0.0 0.0 0.0 20.003638595078232" Properties=species:S:1:pos:R:3:tags:I:1:forces:R:3:charge:R:1 charge=0 spin=0 energy=-2120.1950327466375 free_energy=-2120.1950327466375 stress="0.021300499864102748 9.019448418806701e-05 -4.069411725719385e-06 9.019448418806701e-05 0.004292366181642588 0.0023385749397685928 -4.069411725719385e-06 0.0023385749397685928 3.309200117136027e-05" dipole="-0.09372279671149897 0.09573752597931304 0.30217904197059436" pbc="T T T"
Fe       0.00000000       0.00000000       8.00000000        3      -0.09735779       0.01225292      -0.02860281      -0.00401961
Fe       2.83100000       0.00000000       8.00000000        3      -0.00164673       0.05476316      -0.11340919      -0.00177225
Fe       5.66200000       0.00000000       8.00000000        3       0.09807473       0.01314897      -0.03109805      -0.00406199
Fe       1.41550000       2.00181930       8.00000000        3      -0.03726832       0.01251972      -0.01587169      -0.00366538
Fe       4.24650000       2.00181930       8.00000000        3       0.03793975       0.01575606      -0.02003831      -0.00364853
Fe       7.07750000       2.00181930       8.00000000        3       0.00315958      -0.01205574      -0.04146910      -0.00472314
Fe       2.83100000       4.00363860       8.00000000        3       0.00217204       0.02535033      -0.17558239      -0.00388799
Fe       5.66200000       4.00363860       8.00000000        3       0.05915399      -0.04310307      -0.01863581      -0.00288891
Fe       8.49300000       4.00363860       8.00000000        3      -0.06304726      -0.04410995      -0.02191159      -0.00289219
Fe       0.00000000       2.00181930      10.00181930        2      -0.11454331      -0.08087949       0.06200085       0.00192665
Fe       2.83100000       2.00181930      10.00181930        2      -0.00178788      -0.10766830      -1.02271584       0.00482904
Fe       5.66200000       2.00181930      10.00181930        2       0.11425222      -0.07057085       0.05018277       0.00200200
Fe       1.41550000       4.00363860      10.00181930        2       0.28942940      -0.07215175      -0.69084944       0.00326722
Fe       4.24650000       4.00363860      10.00181930        2      -0.27458277      -0.13841904      -0.61715817       0.00322278
Fe       7.07750000       4.00363860      10.00181930        2       0.02966322      -0.09308506       0.14390125       0.00335843
Fe       2.83100000       6.00545789      10.00181930        2      -0.01428327       0.12778243       0.16214478       0.00334142
Fe       5.66200000       6.00545789      10.00181930        2       0.25187423       0.05661225      -0.85521328       0.00432081
Fe       8.49300000       6.00545789      10.00181930        2      -0.29561497       0.02316506      -0.93830496       0.00440153
Fe       0.28239819       0.14448347      11.85446863        1      -0.35713102      -0.06934868       0.53533152       0.00643986
Fe       2.83520669      -0.39858603      11.85524643        1      -0.00814272      -0.35925814       0.92252180      -0.03987134
Fe       5.36030756       0.15818307      11.85448413        1       0.44252607      -0.14404736       0.61488200       0.00652878
Fe       1.69185631       1.99567079      11.95831334        1      -0.00803360       0.03317625       0.58182041       0.00421511
Fe       3.97400324       2.01030553      11.95735519        1       0.01655731       0.07224327       0.56971103       0.00414674
Fe       7.07262559       2.00899732      12.01387572        1       0.02674543       1.73471275       4.91894233       0.01014215
Fe       2.83019572       4.40394869      11.85510849        1       0.01552796       0.63977031      -0.01269966      -0.00520170
Fe       5.37676556       3.87270238      11.85322702        1       0.18617944       0.10069960       0.84836166       0.01180241
Fe       8.79793012       3.84489655      11.85537756        1      -0.28524088       0.15525487       0.88325814       0.01198930
N        7.07745971       2.79813522      13.55832163        0      -0.00575147      -0.00142284       0.00097304      -0.09858571
H        7.07747120       5.10564110      13.38767443        0       0.00439752      -0.01025317       0.00236116       0.08928454
