29
Lattice="8.493 0.0 0.0 4.2465 6.005457892617349 0.0 0.0 0.0 20.003638595078232" Properties=species:S:1:pos:R:3:tags:I:1:forces:R:3:charge:R:1 charge=0 spin=0 energy=-2355.6443828785323 free_energy=-2355.6443828785323 stress="0.02162780670191285 -0.0008238590401785737 0.0010644857798720153 -0.0008238590401785737 0.00717032322460278 -0.0009135754000097828 0.0010644857798720153 -0.0009135754000097828 -0.0062783596083797215" dipole="-0.14107680262121292 0.31856030408500746 0.8379727398543828" pbc="T T T"
Fe       0.00000000       0.00000000       8.00000000        3       0.08577395      -0.07242985      -0.12929986      -0.00276585
Fe       2.83100000       0.00000000       8.00000000        3      -0.13694414      -0.00455269      -0.07937331      -0.00442327
Fe       5.66200000       0.00000000       8.00000000        3       0.05138679      -0.01565573      -0.06014927      -0.00363326
Fe       1.41550000       2.00181930       8.00000000        3       0.03092937      -0.08246873      -0.11465482      -0.00375871
Fe       4.24650000       2.00181930       8.00000000        3      -0.10397279      -0.01707636      -0.02447751      -0.00439899
Fe       7.07750000       2.00181930       8.00000000        3      -0.01128017      -0.01265779      -0.03251233      -0.00441214
Fe       2.83100000       4.00363860       8.00000000        3       0.05328711      -0.06339255      -0.08517050      -0.00319005
Fe       5.66200000       4.00363860       8.00000000        3      -0.04306167       0.00030689      -0.09193485      -0.00429639
Fe       8.49300000       4.00363860       8.00000000        3       0.05527943       0.02266324      -0.06775967      -0.00455976
Fe       0.00000000       2.00181930      10.00181930        2      -0.12553189       0.40551501      -0.01513878       0.00198611
Fe       2.83100000       2.00181930      10.00181930        2      -0.21036532      -0.27267099      -0.03713575      -0.00126976
Fe       5.66200000       2.00181930      10.00181930        2       0.32787083      -0.20345111      -1.06176788       0.00830008
Fe       1.41550000       4.00363860      10.00181930        2       0.15390243       0.42831656      -0.39573447       0.00403299
Fe       4.24650000       4.00363860      10.00181930        2       0.01700221      -0.21685777      -0.15527498      -0.00061069
Fe       7.07750000       4.00363860      10.00181930        2      -0.00584873      -0.09455101      -0.65690791       0.00469967
Fe       2.83100000       6.00545789      10.00181930        2      -0.10243407       0.61053271      -0.36729805       0.00180232
Fe       5.66200000       6.00545789      10.00181930        2      -0.05621124      -0.25869329       0.33712203      -0.00021678
Fe       8.49300000       6.00545789      10.00181930        2       0.46664228      -0.34617607      -1.08136828       0.00489041
Fe      -0.39294215      -0.64081239      11.89914594        1      -0.01793892       0.00486727       0.46084143      -0.02476364
Fe       3.15129007       0.29900728      11.82621820        1      -0.76604671       0.09054485       0.58315815       0.00535241
Fe       5.67580923      -0.51311943      11.82642584        1       0.13548631      -0.24174130       0.22138185       0.00577424
Fe       1.05372265       1.35349095      11.91274636        1      -0.02125575       0.07036011       0.14354783      -0.00627173
Fe       4.55718257       2.19495814      11.91059787        1       0.74123694       0.34256038       2.56092748       0.04490658
Fe       7.10981515       1.49918791      11.89013415        1      -0.30130886       0.32587713       0.39808856       0.03935691
Fe       2.47355433       3.34496955      11.89808500        1      -0.03070859       0.14773376       0.33215632      -0.01512493
Fe       5.98591592       4.41079687      11.91895696        1      -0.16548368      -0.48207679       1.33271836       0.02510989
Fe       8.55500895       3.53463000      11.82006576        1       0.20222835      -0.09185375       0.27657643       0.01043377
O        5.60331102       2.72332979      13.14610355        0       0.00084931       0.00062554       0.00822718      -0.37780635
H        4.49777437       3.76755801      13.05598828        0      -0.01428700       0.01043326      -0.00489204       0.30485693
