2
Lattice="20.698000449549408 0.0 0.0 0.0 20.0 0.0 0.0 0.0 20.0" Properties=species:S:1:pos:R:3:forces:R:3 charge=0 spin=1 energy=-31.58817279201152 free_energy=-31.58817279201152 stress="-2.7407315428717993e-05 9.794205547305128e-20 -1.3991724518417517e-20 9.794205547305128e-20 0.0 0.0 -1.3991724518417517e-20 0.0 0.0" pbc="T T T"
H       10.71561868      10.00000000      10.00000000       0.30946413      -0.00000000       0.00000000
H        9.98238177      10.00000000      10.00000000      -0.30946413       0.00000000      -0.00000000
