41
Lattice="7.708127040155146 0.0 0.0 3.854063520077573 6.675433832372109 0.0 0.0 0.0 22.29365937364323" Properties=species:S:1:pos:R:3:tags:I:1:forces:R:3:charge:R:1 energy=-4704.960704952445 free_energy=-4704.960704952445 stress="-0.01365292777581922 0.00020035866528524154 -0.0005870119271647646 0.00020035866528524154 -0.013872601689004532 -0.00029881645276734096 -0.0005870119271647646 -0.00029881645276734096 -0.016972757673722843" dipole="0.4891405686410996 0.2751435461303824 1.3929739441407376" pbc="T T F"
Cu      -0.00000000      -0.00000000       8.00000000        4      -0.04806014      -0.02664821      -0.31243441      -0.01558319
Cu       2.56937568       0.00000000       8.00000000        4       0.04158930       0.03425718      -0.29911263       0.01043279
Cu       5.13875136      -0.00000000       8.00000000        4       0.00763790       0.00371337      -0.29434841       0.00206519
Cu       1.28468784       2.22514461       8.00000000        4       0.04855741       0.01758051      -0.30002629       0.01053071
Cu       3.85406352       2.22514461       8.00000000        4      -0.07845261      -0.04534221      -0.32092678      -0.01646385
Cu       6.42343920       2.22514461       8.00000000        4       0.03081109       0.01053113      -0.29402179       0.00312071
Cu       2.56937568       4.45028922       8.00000000        4       0.00814193       0.00578747      -0.29476208       0.00205856
Cu       5.13875136       4.45028922       8.00000000        4       0.02360392       0.02009512      -0.29323963       0.00304478
Cu       7.70812704       4.45028922       8.00000000        4      -0.03118258      -0.01743301      -0.32418187      -0.02603842
Cu       1.28468784       0.74171487      10.09788646        3      -0.08383534      -0.04807159      -0.03097348      -0.00491251
Cu       3.85406352       0.74171487      10.09788646        3       0.06178354       0.04141393      -0.04868916      -0.00335802
Cu       6.42343920       0.74171487      10.09788646        3       0.01933197      -0.09111760      -0.02271886       0.00065906
Cu       2.56937568       2.96685948      10.09788646        3       0.06870741       0.03343132      -0.04710003      -0.00367763
Cu       5.13875136       2.96685948      10.09788646        3      -0.00301185      -0.00138904      -0.08278928      -0.00267858
Cu       7.70812704       2.96685948      10.09788646        3      -0.06831404       0.07967468      -0.06086350       0.00879934
Cu       3.85406352       5.19200409      10.09788646        3      -0.07052492       0.06015115      -0.02342734       0.00098556
Cu       6.42343920       5.19200409      10.09788646        3       0.03673585      -0.09904074      -0.06298965       0.00928934
Cu       8.99281488       5.19200409      10.09788646        3       0.03204265       0.01817164      -0.00739457       0.00219967
Cu      -0.00001456       1.48341895      12.22216237        2       0.04378157      -0.09108950       0.05190113       0.00298887
Cu       2.56938632       1.48343972      12.22228812        2       0.03621114       0.02067541      -0.00818258      -0.01190447
Cu       5.13868200       1.48341490      12.22229490        2      -0.07729297      -0.06575235       0.07413543       0.01266819
Cu       1.28472730       3.70860469      12.22229670        2       0.03506726       0.02053183       0.04413964      -0.00703091
Cu       3.85404919       3.70853617      12.22226661        2      -0.09543763      -0.03370838       0.07641254       0.01260917
Cu       6.42343137       3.70855859      12.22219237        2       0.06921451       0.03960791       0.07728188      -0.02788416
Cu       2.56933175       5.93372331      12.22226822        2       0.02061527       0.01357871       0.01392180      -0.01116297
Cu       5.13873976       5.93371007      12.22221793        2      -0.05767884       0.08543699       0.05064420       0.00262389
Cu       7.70811165       5.93376676      12.22227910        2       0.03489483       0.02124855       0.04525096      -0.00697879
Cu       0.00003176       0.00005032      14.34901118        1       0.03568307       0.02894852       0.36834995      -0.06527298
Cu       2.56930125       0.00001804      14.34916312        1       0.02931320       0.29650096       0.26791565      -0.02494075
Cu       5.13864853       0.00002580      14.34922433        1       0.00315360      -0.00489128       0.25903805      -0.02750128
Cu       1.28470809       2.22517124      14.34907163        1       0.26085538      -0.12292738       0.27326033      -0.02468629
Cu       3.85409307       2.22518508      14.34928516        1      -0.33317761      -0.19330211       0.20007466      -0.05679871
Cu       6.42349021       2.22507450      14.34904494        1       0.12661928      -0.34000811       0.09260054       0.01025791
Cu       2.56959011       4.45037276      14.34913478        1      -0.00491974       0.00435897       0.26126940      -0.02828533
Cu       5.13896751       4.45026038      14.34907842        1      -0.24179876       0.28457310       0.08299018       0.01384719
Cu       7.70816084       4.45028686      14.34912297        1      -0.01239996      -0.01185143       0.39772539       0.05118300
O        7.23215696       4.18423231      17.00893224        0       0.10682127       0.07890614       0.12869040      -0.50644661
C        6.43182025       3.72648684      15.98045141        0      -0.12035608      -0.07557933       0.42517814       0.18663405
H        5.38567022       4.13210862      16.13574113        0      -0.12776819       0.17828254      -0.20444355       0.07845238
H        6.24101265       2.62596567      16.14815864        0       0.07790209      -0.23596885      -0.20779657       0.07757474
H        6.81278502       3.91168655      17.83672370        0       0.19513580       0.10666396       0.34964218       0.36958031
