41
Lattice="7.708127040155146 0.0 0.0 3.854063520077573 6.675433832372109 0.0 0.0 0.0 22.29365937364323" Properties=species:S:1:pos:R:3:tags:I:1:forces:R:3:charge:R:1 energy=-4705.720423725228 free_energy=-4705.720423725228 stress="-0.013780795981260073 -0.0008159689981992649 -2.2386865328433534e-05 -0.0008159689981992649 -0.013238490821850645 -4.5548906657482786e-05 -2.2386865328433534e-05 -4.5548906657482786e-05 -0.015283963313046567" dipole="1.6458378108130565 0.25380251229935397 1.3206974057970755" pbc="T T F"
Cu       0.00000000      -0.00000000       8.00000000        4      -0.02656676      -0.02635713      -0.31232180      -0.00046505
Cu       2.56937568      -0.00000000       8.00000000        4      -0.02575835      -0.02662941      -0.33947234      -0.01580769
Cu       5.13875136       0.00000000       8.00000000        4       0.06050585      -0.02527019      -0.31404025       0.00206842
Cu       1.28468784       2.22514461       8.00000000        4      -0.02331608       0.00964173      -0.27857224       0.00997981
Cu       3.85406352       2.22514461       8.00000000        4       0.03713527       0.02419409      -0.29140756       0.01656571
Cu       6.42343920       2.22514461       8.00000000        4      -0.00598793      -0.00585659      -0.32738738      -0.03367546
Cu       2.56937568       4.45028922       8.00000000        4      -0.00186615       0.05136391      -0.31056277      -0.01661504
Cu       5.13875136       4.45028922       8.00000000        4      -0.00690857       0.00544558      -0.30251633      -0.00084927
Cu       7.70812704       4.45028922       8.00000000        4       0.01657468      -0.00481895      -0.29357923      -0.00334247
Cu       1.28468784       0.74171487      10.09788646        3       0.05296497      -0.03120325      -0.00954409      -0.00477376
Cu       3.85406352       0.74171487      10.09788646        3      -0.04242564      -0.04023050       0.00615754      -0.01447866
Cu       6.42343920       0.74171487      10.09788646        3      -0.03194338       0.04010317      -0.01651704       0.00251850
Cu       2.56937568       2.96685948      10.09788646        3      -0.01961458      -0.01496811      -0.04570285      -0.00678512
Cu       5.13875136       2.96685948      10.09788646        3       0.04570992      -0.02212725      -0.05443846       0.00348886
Cu       7.70812704       2.96685948      10.09788646        3      -0.04606630      -0.04764920      -0.10781990       0.02592325
Cu       3.85406352       5.19200409      10.09788646        3       0.00740925       0.00725535      -0.00821117       0.00128352
Cu       6.42343920       5.19200409      10.09788646        3      -0.04350901       0.06926251      -0.04761492       0.00810436
Cu       8.99281488       5.19200409      10.09788646        3       0.01120261       0.03389130      -0.05270432       0.00838248
Cu      -0.00001456       1.48341895      12.22216237        2      -0.04224438       0.01273767       0.06799664      -0.01591263
Cu       2.56938632       1.48343972      12.22228812        2       0.01429509      -0.00366734       0.08242706       0.01534113
Cu       5.13868200       1.48341490      12.22229490        2       0.04622416       0.00315183       0.05278851       0.01822595
Cu       1.28472730       3.70860469      12.22229670        2       0.08957150       0.01968898       0.07232753      -0.00115997
Cu       3.85404919       3.70853617      12.22226661        2      -0.03499433       0.01893552       0.03088657       0.00216646
Cu       6.42343137       3.70855859      12.22219237        2      -0.03832176      -0.06039640       0.06354348      -0.01924768
Cu       2.56933175       5.93372331      12.22226822        2      -0.01103279      -0.03829164       0.02437482      -0.00754465
Cu       5.13873976       5.93371007      12.22221793        2       0.00998563       0.00596776       0.09699729       0.01028116
Cu       7.70811165       5.93376676      12.22227910        2       0.03353417       0.03210949       0.14356602      -0.01393769
Cu       0.00003176       0.00005032      14.34901118        1       0.06607322      -0.12988256       0.31026092      -0.04976249
Cu       2.56930125       0.00001804      14.34916312        1      -0.06846388       0.12429669       0.31535185      -0.02644661
Cu       5.13864853       0.00002580      14.34922433        1       0.01792872       0.02611796       0.34507778      -0.07769201
Cu       1.28470809       2.22517124      14.34907163        1       0.30919091      -0.19292304       0.09093336      -0.04333057
Cu       3.85409307       2.22518508      14.34928516        1      -0.13210449      -0.05634827       0.28105268      -0.06473451
Cu       6.42349021       2.22507450      14.34904494        1      -0.20004911      -0.19922551       0.34376487       0.04652420
Cu       2.56959011       4.45037276      14.34913478        1       0.13453087       0.06617001       0.25753107      -0.04820911
Cu       5.13896751       4.45026038      14.34907842        1      -0.26400106       0.20377079       0.12059827      -0.03325775
Cu       7.70816084       4.45028686      14.34912297        1       0.08943839       0.16994939       0.40396395       0.11170263
O        7.56357909       3.69916205      16.43804771        0      -0.00869623      -0.02726620      -0.03857843      -0.44913144
C        6.59833665       2.66109303      16.40114384        0       0.04406023      -0.00033950       0.00522692       0.15208335
H        5.66622907       3.04867597      16.81753610        0       0.02713803       0.00166897       0.00600273       0.06965972
H        6.93582027       1.80222247      16.98353803        0      -0.01744067       0.01712901      -0.00249756       0.05415836
H        8.38134207       3.39818780      16.85674677        0      -0.02216201       0.01059933       0.03265883       0.38870175
