41
Lattice="7.708127040155146 0.0 0.0 3.854063520077573 6.675433832372109 0.0 0.0 0.0 22.29365937364323" Properties=species:S:1:pos:R:3:tags:I:1:forces:R:3:charge:R:1 energy=-4705.021610905432 free_energy=-4705.021610905432 stress="-0.013730586407895533 -0.0004019219899650244 -0.0005444190128228339 -0.0004019219899650244 -0.01318900211777367 0.00031989548544263384 -0.0005444190128228339 0.00031989548544263384 -0.014579584696930895" dipole="-0.0420053630289582 0.2572208983655261 1.0962543570977263" pbc="T T F"
Cu       0.00000000      -0.00000000       8.00000000        4      -0.05380180       0.00737873      -0.28233024       0.00509409
Cu       2.56937568      -0.00000000       8.00000000        4       0.02188497       0.03743544      -0.31659463      -0.01456287
Cu       5.13875136       0.00000000       8.00000000        4       0.03066717      -0.03435270      -0.30882978       0.00317221
Cu       1.28468784       2.22514461       8.00000000        4       0.03850536      -0.01459910      -0.30038612       0.00824785
Cu       3.85406352       2.22514461       8.00000000        4      -0.01595543       0.00702159      -0.28724615       0.00803348
Cu       6.42343920       2.22514461       8.00000000        4      -0.02355324       0.03313712      -0.32118419      -0.02122687
Cu       2.56937568       4.45028922       8.00000000        4      -0.01782517       0.02710045      -0.32047602      -0.01419560
Cu       5.13875136       4.45028922       8.00000000        4       0.03178162      -0.06490870      -0.29008041       0.00346720
Cu       7.70812704       4.45028922       8.00000000        4      -0.01360871       0.00639511      -0.33316428      -0.00470997
Cu       1.28468784       0.74171487      10.09788646        3       0.02076789      -0.04082886      -0.01449522       0.00044276
Cu       3.85406352       0.74171487      10.09788646        3      -0.05913220      -0.09166335      -0.02893292      -0.00286618
Cu       6.42343920       0.74171487      10.09788646        3       0.03949211      -0.05004969      -0.04456377      -0.00112660
Cu       2.56937568       2.96685948      10.09788646        3      -0.03115422       0.03684430      -0.04060371      -0.00106688
Cu       5.13875136       2.96685948      10.09788646        3       0.09443766       0.02096999      -0.10752255       0.00780183
Cu       7.70812704       2.96685948      10.09788646        3      -0.06158323       0.04128507      -0.02583286       0.00339481
Cu       3.85406352       5.19200409      10.09788646        3      -0.08148187       0.05309733      -0.03315638       0.00258024
Cu       6.42343920       5.19200409      10.09788646        3       0.06619106       0.00923796      -0.04005641      -0.00222159
Cu       8.99281488       5.19200409      10.09788646        3       0.01834151       0.00828491       0.01128739      -0.00234000
Cu      -0.00001456       1.48341895      12.22216237        2      -0.02673599      -0.04211080       0.07461270      -0.00003906
Cu       2.56938632       1.48343972      12.22228812        2      -0.01860358      -0.02517895       0.06310328      -0.00656088
Cu       5.13868200       1.48341490      12.22229490        2       0.03521436       0.00766861       0.04141476       0.00357181
Cu       1.28472730       3.70860469      12.22229670        2       0.05472762      -0.00469022       0.07864642      -0.00507740
Cu       3.85404919       3.70853617      12.22226661        2      -0.04932725      -0.01472816       0.08682206       0.00189454
Cu       6.42343137       3.70855859      12.22219237        2      -0.00679705      -0.05693652       0.12364455      -0.00367502
Cu       2.56933175       5.93372331      12.22226822        2       0.02329556       0.01727293       0.07158062      -0.00001666
Cu       5.13873976       5.93371007      12.22221793        2      -0.00717281       0.08259755       0.08459525       0.00683692
Cu       7.70811165       5.93376676      12.22227910        2      -0.02214349       0.04651718       0.10953560       0.00367298
Cu       0.00003176       0.00005032      14.34901118        1      -0.02911188       0.03616915       0.26741290      -0.02557648
Cu       2.56930125       0.00001804      14.34916312        1       0.06425957       0.17122621       0.24027595      -0.03759562
Cu       5.13864853       0.00002580      14.34922433        1      -0.02148001      -0.16036204       0.25554948      -0.04236709
Cu       1.28470809       2.22517124      14.34907163        1       0.13736381      -0.05423755       0.29654892       0.00109899
Cu       3.85409307       2.22518508      14.34928516        1      -0.33620415      -0.20908958       0.13852615      -0.01797754
Cu       6.42349021       2.22507450      14.34904494        1       0.06892200       0.22719426       0.49665233      -0.00392272
Cu       2.56959011       4.45037276      14.34913478        1      -0.13276732       0.02149920       0.27370057      -0.04945482
Cu       5.13896751       4.45026038      14.34907842        1       0.12917974       0.06381217       0.29721322       0.00300938
Cu       7.70816084       4.45028686      14.34912297        1       0.11487975       0.06057779       0.32082248       0.02331341
O        6.76976162       3.50830111      17.27435282        0       0.10624214       0.02498051      -0.22406205      -0.51824491
C        5.77850787       3.34130776      16.31316655        0      -0.20933178      -0.04584014       0.32772483       0.18696349
H        5.06095957       4.19827072      16.40455380        0      -0.01893558       0.15501439      -0.36513494       0.07663535
H        5.15633771       2.47939391      16.59428255        0      -0.13499685      -0.28427386      -0.11986306       0.05874398
H        6.36094622       3.32207931      18.13270981        0       0.27554971      -0.00886772       0.14484622       0.36684946
