29
Lattice="8.493 0.0 0.0 4.2465 6.005457892617349 0.0 0.0 0.0 20.003638595078232" Properties=species:S:1:pos:R:3:initial_charges:R:1:tags:I:1:forces:R:3 charge=0 spin=0 energy=-196.38572004402582 free_energy=-196.38572004402582 stress="0.04182903468608856 0.0020479329396039248 0.00018292425374966115 0.0020479329396039248 0.026483731344342232 0.0008685384527780116 0.00018292425374966115 0.0008685384527780116 0.009133564308285713" dipole="0.10230523789807264 0.10075144294858517 1.0308493024154035" pbc="T T T"
Fe       0.00000000       0.00000000       8.00000000      -0.00193585        3      -0.09848388       0.10227966       0.52643287
Fe       2.83100000       0.00000000       8.00000000      -0.00124582        3       0.08800644       0.00914391       0.37630841
Fe       5.66200000       0.00000000       8.00000000      -0.00156881        3       0.04433247       0.03917421       0.48344710
Fe       1.41550000       2.00181930       8.00000000      -0.00218105        3       0.09693836       0.00400606       0.38369897
Fe       4.24650000       2.00181930       8.00000000      -0.00236539        3       0.07185807       0.05130229       0.53008741
Fe       7.07750000       2.00181930       8.00000000      -0.00244561        3      -0.03990220       0.06043629       0.67117465
Fe       2.83100000       4.00363860       8.00000000      -0.00263892        3       0.06586144       0.05707503       0.54493690
Fe       5.66200000       4.00363860       8.00000000      -0.00237424        3      -0.02147556       0.10539678       0.66013438
Fe       8.49300000       4.00363860       8.00000000      -0.00191837        3      -0.02020756      -0.00258763       0.50629646
Fe       0.00000000       2.00181930      10.00181930      -0.00046999        2       0.03194927      -0.04248166      -1.20047712
Fe       2.83100000       2.00181930      10.00181930       0.00279413        2       0.11693636      -0.42018896      -0.57070988
Fe       5.66200000       2.00181930      10.00181930       0.00657331        2      -0.05195858       0.34570706      -0.28120705
Fe       1.41550000       4.00363860      10.00181930       0.00095515        2      -0.11809640      -0.30401149      -0.55928344
Fe       4.24650000       4.00363860      10.00181930       0.00241262        2      -0.07165439       0.22536056       0.22095175
Fe       7.07750000       4.00363860      10.00181930       0.00513037        2      -0.32743672       0.05738957      -0.71609056
Fe       2.83100000       6.00545789      10.00181930      -0.00102073        2      -0.23236877       0.21613115       0.07040799
Fe       5.66200000       6.00545789      10.00181930      -0.00148694        2       0.21081439      -0.14597617      -1.25416291
Fe       8.49300000       6.00545789      10.00181930       0.00288987        2       0.17232035      -0.35030413      -0.41705281
Fe       0.30917505      -0.14563128      11.84267938       0.01436246        1      -0.00262648       0.00978578       0.01299373
Fe       2.79251603       0.47302674      11.80857970       0.01915603        1       0.00372314      -0.00152390      -0.00702300
Fe       5.40399864       0.66424486      11.93665250       0.02215808        1       0.01757744      -0.01237342       0.00426599
Fe       1.45354683       2.50796355      11.83133560       0.01052885        1       0.00589318      -0.00617765       0.00057926
Fe       3.76905700       2.71105798      11.95769986       0.05977646        1      -0.00619708       0.00076974       0.00625223
Fe       7.47829414       1.90325403      11.91851983       0.07409033        1       0.00828454      -0.01772950       0.01409833
Fe       2.48424820       4.68757560      11.89006720       0.01517281        1       0.00805347      -0.00123305      -0.00736096
Fe       5.92507116       3.81755861      12.09107454       0.07829405        1       0.01364900       0.02142105      -0.01778252
Fe       8.58511028       4.54052855      11.90426416       0.03279229        1       0.00723960      -0.00548215       0.00975146
O        7.58174391       3.42843973      12.96575496      -0.16058989        0       0.00573253      -0.01276782       0.00043123
O        5.19427957       2.23409756      12.95106790      -0.16484522        0       0.02123733       0.01745885       0.00890152
