31
Lattice="8.493 0.0 0.0 4.2465 6.005457892617349 0.0 0.0 0.0 20.003638595078232" Properties=species:S:1:pos:R:3:initial_charges:R:1:tags:I:1:forces:R:3 charge=0 spin=0 energy=-204.59442241183027 free_energy=-204.59442241183027 stress="0.05233091488480568 0.000496843655128032 0.00014599572750739753 0.000496843655128032 0.01801343820989132 -0.0019529106793925166 0.00014599572750739753 -0.0019529106793925166 0.008908300660550594" dipole="-0.6202161704940834 0.15619450925938405 2.1892219157837918" pbc="T T T"
Fe       0.00000000       0.00000000       8.00000000      -0.00618052        3      -0.03067143      -0.10214888       0.39958489
Fe       2.83100000       0.00000000       8.00000000      -0.00577545        3       0.02188733      -0.07842138       0.61024785
Fe       5.66200000       0.00000000       8.00000000      -0.00717141        3       0.02621763      -0.13326029       0.44502857
Fe       1.41550000       2.00181930       8.00000000      -0.00683989        3       0.02311651      -0.10019546       0.62678784
Fe       4.24650000       2.00181930       8.00000000      -0.00739744        3      -0.01596027      -0.11805453       0.62653869
Fe       7.07750000       2.00181930       8.00000000      -0.00682620        3       0.01589512      -0.12409327       0.51092088
Fe       2.83100000       4.00363860       8.00000000      -0.00727232        3       0.01998125      -0.11482067       0.40336382
Fe       5.66200000       4.00363860       8.00000000      -0.00614938        3      -0.01494498      -0.11176557       0.42723948
Fe       8.49300000       4.00363860       8.00000000      -0.00671970        3       0.00326791      -0.09115439       0.50501227
Fe       0.00000000       2.00181930      10.00181930       0.01273893        2      -0.04136361       0.38883373      -0.71963638
Fe       2.83100000       2.00181930      10.00181930       0.00265097        2       0.00758277      -0.44992116      -0.26462993
Fe       5.66200000       2.00181930      10.00181930      -0.00050977        2      -0.02535082       0.34607020      -0.58999336
Fe       1.41550000       4.00363860      10.00181930       0.00283695        2       0.25753483      -0.17487246      -0.52190989
Fe       4.24650000       4.00363860      10.00181930       0.00030036        2      -0.13295917      -0.04053929      -0.60045421
Fe       7.07750000       4.00363860      10.00181930      -0.00024415        2      -0.11516426       0.40644935      -0.27293441
Fe       2.83100000       6.00545789      10.00181930      -0.00049488        2      -0.03349203       0.29266781      -0.68129200
Fe       5.66200000       6.00545789      10.00181930      -0.00010468        2      -0.49131259       0.25864139      -0.50247800
Fe       8.49300000       6.00545789      10.00181930       0.00227229        2       0.54503435      -0.05133511      -0.40421304
Fe      -0.07690966      -0.63673832      11.82828681       0.02373620        1      -0.00208629       0.00002935       0.00083910
Fe       2.78733026      -0.34381713      11.77819252      -0.00027613        1      -0.00094703       0.00033458      -0.00215845
Fe       5.88439409      -0.69836390      11.85025238      -0.01142756        1       0.00697081      -0.00037731       0.00180431
Fe       1.19717256       1.44508285      11.91843427       0.04340897        1      -0.00348288       0.00020401       0.00107820
Fe       4.52335469       1.37658086      11.92704586      -0.00860149        1       0.00245122      -0.00537598      -0.00375663
Fe       7.06494691       1.38250760      11.90659693       0.03953890        1      -0.00303409      -0.00046705       0.00350390
Fe       2.94176839       3.31963707      11.83588591      -0.00269509        1      -0.00922177       0.00183896       0.00034726
Fe       5.64817345       3.56644796      11.90004260       0.01013208        1      -0.00807129       0.00066300      -0.00850180
Fe       8.46217700       3.65575489      11.85928983       0.05115048        1      -0.00040993       0.00033779       0.00132165
N        5.82996732       2.20107471      13.21951836      -0.35075967        0       0.01476234       0.00375282      -0.00876266
H        7.19490346       2.32716004      13.49663299       0.39195729        0      -0.00233307      -0.00292299       0.00297187
H        5.42600751       2.04927609      14.15522348       0.24840418        0      -0.01346501      -0.00182923       0.01257761
O        8.35967278       2.31702761      13.16711391      -0.39368188        0      -0.00043151       0.00173213       0.00155264
